<?xml version="1.0"?>
<VTKFile type="UnstructuredGrid" version="1.0" byte_order="LittleEndian">
  <UnstructuredGrid>
    <Piece NumberOfPoints="+378" NumberOfCells="+682">
      <Points>
        <DataArray type="Float64" NumberOfComponents="3" Name="Points" format="ascii">
           0.000000000000000E+000  0.000000000000000E+000  0.000000000000000E+000 0.000000000000000E+000 +0.100000000000000E+002  0.000000000000000E+000+0.250000000000000E+001  0.000000000000000E+000  0.000000000000000E+000+0.250000000000000E+001 +0.100000000000000E+002  0.000000000000000E+000+0.833333333331568E+000  0.000000000000000E+000  0.000000000000000E+000+0.166666666666540E+001  0.000000000000000E+000  0.000000000000000E+000+0.230769230769231E+001 +0.100000000000000E+002  0.000000000000000E+000+0.211538461538461E+001 +0.100000000000000E+002  0.000000000000000E+000+0.192307692307692E+001 +0.100000000000000E+002  0.000000000000000E+000+0.173076923076923E+001 +0.100000000000000E+002  0.000000000000000E+000+0.153846153846154E+001 +0.100000000000000E+002  0.000000000000000E+000+0.134615384615385E+001 +0.100000000000000E+002  0.000000000000000E+000+0.115384615384615E+001 +0.100000000000000E+002  0.000000000000000E+000+0.961538461538461E+000 +0.100000000000000E+002  0.000000000000000E+000+0.769230769230769E+000 +0.100000000000000E+002  0.000000000000000E+000+0.576923076923077E+000 +0.100000000000000E+002  0.000000000000000E+000+0.384615384615385E+000 +0.100000000000000E+002  0.000000000000000E+000+0.192307692307693E+000 +0.100000000000000E+002  0.000000000000000E+000 0.000000000000000E+000 +0.980086692541622E+001  0.000000000000000E+000 0.000000000000000E+000 +0.958587224013280E+001  0.000000000000000E+000 0.000000000000000E+000 +0.935375256681188E+001  0.000000000000000E+000 0.000000000000000E+000 +0.910314383324479E+001  0.000000000000000E+000 0.000000000000000E+000 +0.883257329205116E+001  0.000000000000000E+000 0.000000000000000E+000 +0.854045093965354E+001  0.000000000000000E+000 0.000000000000000E+000 +0.822506013134424E+001  0.000000000000000E+000 0.000000000000000E+000 +0.788454738959382E+001  0.000000000000000E+000 0.000000000000000E+000 +0.751691169211653E+001  0.000000000000000E+000 0.000000000000000E+000 +0.711999263123801E+001  0.000000000000000E+000 0.000000000000000E+000 +0.669145765523573E+001  0.000000000000000E+000 0.000000000000000E+000 +0.622878851575536E+001  0.000000000000000E+000 0.000000000000000E+000 +0.572926632573230E+001  0.000000000000000E+000 0.000000000000000E+000 +0.518995559680451E+001  0.000000000000000E+000 0.000000000000000E+000 +0.460768698179514E+001  0.000000000000000E+000 0.000000000000000E+000 +0.397903883866553E+001  0.000000000000000E+000 0.000000000000000E+000 +0.330031681573342E+001  0.000000000000000E+000 0.000000000000000E+000 +0.256753237340995E+001  0.000000000000000E+000 0.000000000000000E+000 +0.177637930568165E+001  0.000000000000000E+000 0.000000000000000E+000 +0.922208297388860E+000  0.000000000000000E+000+0.250000000000000E+001 +0.922208297387605E+000  0.000000000000000E+000+0.250000000000000E+001 +0.177637930567827E+001  0.000000000000000E+000+0.250000000000000E+001 +0.256753237340415E+001  0.000000000000000E+000+0.250000000000000E+001 +0.330031681572555E+001  0.000000000000000E+000+0.250000000000000E+001 +0.397903883865595E+001  0.000000000000000E+000+0.250000000000000E+001 +0.460768698178675E+001  0.000000000000000E+000+0.250000000000000E+001 +0.518995559679725E+001  0.000000000000000E+000+0.250000000000000E+001 +0.572926632572605E+001  0.000000000000000E+000+0.250000000000000E+001 +0.622878851575002E+001  0.000000000000000E+000+0.250000000000000E+001 +0.669145765523120E+001  0.000000000000000E+000+0.250000000000000E+001 +0.711999263123419E+001  0.000000000000000E+000+0.250000000000000E+001 +0.751691169211335E+001  0.000000000000000E+000+0.250000000000000E+001 +0.788454738959120E+001  0.000000000000000E+000+0.250000000000000E+001 +0.822506013134211E+001  0.000000000000000E+000+0.250000000000000E+001 +0.854045093965184E+001  0.000000000000000E+000+0.250000000000000E+001 +0.883257329204985E+001  0.000000000000000E+000+0.250000000000000E+001 +0.910314383324382E+001  0.000000000000000E+000+0.250000000000000E+001 +0.935375256681121E+001  0.000000000000000E+000+0.250000000000000E+001 +0.958587224013239E+001  0.000000000000000E+000+0.250000000000000E+001 +0.980086692541603E+001  0.000000000000000E+000+0.125006278250348E+001 +0.983554608344611E+001  0.000000000000000E+000+0.225247628586050E+001 +0.872081940716637E+001  0.000000000000000E+000+0.228715307317960E+000 +0.869237545003467E+001  0.000000000000000E+000+0.303654556424774E+000 +0.770825035868766E+001  0.000000000000000E+000+0.668334959719306E+000 +0.984015678583892E+001  0.000000000000000E+000+0.181910347133842E+001 +0.980527366547074E+001  0.000000000000000E+000+0.210011278054522E+001 +0.693523627126593E+001  0.000000000000000E+000+0.222419800395347E+001 +0.805396665865478E+001  0.000000000000000E+000+0.397647612023522E+000 +0.602557502727382E+001  0.000000000000000E+000+0.205434926777665E+000 +0.922947812021541E+001  0.000000000000000E+000+0.229360126961353E+001 +0.922296497955063E+001  0.000000000000000E+000+0.345896592012308E+000 +0.693429635877977E+001  0.000000000000000E+000+0.529684803108136E+000 +0.488260240932315E+001  0.000000000000000E+000+0.210466744406708E+001 +0.597843872685520E+001  0.000000000000000E+000+0.559510610037623E+000 +0.362788583847035E+001  0.000000000000000E+000+0.204564361042521E+001 +0.479825763749834E+001  0.000000000000000E+000+0.616044647660434E+000 +0.218221683861504E+001  0.000000000000000E+000+0.233976620397502E+001 +0.969455645252374E+001  0.000000000000000E+000+0.176774017772056E+000 +0.968427197905100E+001  0.000000000000000E+000+0.200996815854004E+001 +0.373486784369462E+001  0.000000000000000E+000+0.124588469417053E+001 +0.826200238989478E+000  0.000000000000000E+000+0.184928134523162E+001 +0.216994717952490E+001  0.000000000000000E+000+0.280244275118561E+000 +0.804772908903539E+001  0.000000000000000E+000+0.587411515207482E+000 +0.788719912502054E+001  0.000000000000000E+000+0.619123196701841E+000 +0.754918867198757E+001  0.000000000000000E+000+0.906710645375727E+000 +0.774596434073162E+001  0.000000000000000E+000+0.874514013103579E+000 +0.809454186199011E+001  0.000000000000000E+000+0.939513567842627E+000 +0.739133963400097E+001  0.000000000000000E+000+0.123568913222244E+001 +0.759587596835622E+001  0.000000000000000E+000+0.127170701763426E+001 +0.722669392251898E+001  0.000000000000000E+000+0.157273120107842E+001 +0.744294158474992E+001  0.000000000000000E+000+0.153522298842003E+001 +0.780189340369202E+001  0.000000000000000E+000+0.971880039611640E+000 +0.701279046891367E+001  0.000000000000000E+000+0.131480143052036E+001 +0.683618302982160E+001  0.000000000000000E+000+0.993441908528222E+000 +0.660771086110251E+001  0.000000000000000E+000+0.135931318010152E+001 +0.641851730356933E+001  0.000000000000000E+000+0.187779720591704E+001 +0.765363194726420E+001  0.000000000000000E+000+0.101330186087826E+001 +0.617275888862732E+001  0.000000000000000E+000+0.138861497214723E+001 +0.596675325184621E+001  0.000000000000000E+000+0.102165344461853E+001 +0.570070385217050E+001  0.000000000000000E+000+0.145227584927529E+001 +0.549124743167628E+001  0.000000000000000E+000+0.179719175112822E+001 +0.800896113408347E+001  0.000000000000000E+000+0.150916807424723E+001 +0.814474855429590E+001  0.000000000000000E+000+0.176538561430277E+001 +0.833785186569594E+001  0.000000000000000E+000+0.149918249620064E+001 +0.846399726963815E+001  0.000000000000000E+000+0.174351569143592E+001 +0.864213991729854E+001  0.000000000000000E+000+0.148643462624954E+001 +0.875997006722141E+001  0.000000000000000E+000+0.171438738233161E+001 +0.892149521793062E+001  0.000000000000000E+000+0.146518767598270E+001 +0.903568787269849E+001  0.000000000000000E+000+0.124630760745363E+001 +0.888894451702466E+001  0.000000000000000E+000+0.123333377855877E+001 +0.915227728939981E+001  0.000000000000000E+000+0.101747428580196E+001 +0.901051022938777E+001  0.000000000000000E+000+0.144073000007270E+001 +0.929220926089268E+001  0.000000000000000E+000+0.100396794369707E+001 +0.926286222657895E+001  0.000000000000000E+000+0.791219493841120E+000 +0.912532678174425E+001  0.000000000000000E+000+0.801832740263328E+000 +0.887256365308373E+001  0.000000000000000E+000+0.782794452695081E+000 +0.937136584150940E+001  0.000000000000000E+000+0.982085245512621E+000 +0.950258984974476E+001  0.000000000000000E+000+0.577207764557675E+000 +0.899045562238579E+001  0.000000000000000E+000+0.121122951711110E+001 +0.826816182957250E+001  0.000000000000000E+000+0.588092791838695E+000 +0.872678995872140E+001  0.000000000000000E+000+0.798000194534919E+000 +0.858245359140783E+001  0.000000000000000E+000+0.588228724191151E+000 +0.844664134319988E+001  0.000000000000000E+000+0.101435286428180E+001 +0.517914191727511E+001  0.000000000000000E+000+0.170832939368388E+001 +0.666091325944160E+001  0.000000000000000E+000+0.765957364132839E+000 +0.964313092123134E+001  0.000000000000000E+000+0.565834942325373E+000 +0.948731012300069E+001  0.000000000000000E+000+0.965140801761907E+000 +0.970290110456391E+001  0.000000000000000E+000+0.120648110750899E+001 +0.939723736135610E+001  0.000000000000000E+000+0.139968837283264E+001 +0.951971789493434E+001  0.000000000000000E+000+0.162929985173778E+001 +0.943003693509702E+001  0.000000000000000E+000+0.159256117091371E+001 +0.966886285031245E+001  0.000000000000000E+000+0.181755820879410E+001 +0.957083000301703E+001  0.000000000000000E+000+0.184268378478465E+001 +0.934560710516820E+001  0.000000000000000E+000+0.200941949543101E+001 +0.947937328826676E+001  0.000000000000000E+000+0.189472015451622E+001 +0.729006263763802E+001  0.000000000000000E+000+0.118275583905074E+001 +0.795097255274228E+001  0.000000000000000E+000+0.197556779522149E+001 +0.881461291547827E+001  0.000000000000000E+000+0.190346475748974E+001 +0.908610308732778E+001  0.000000000
[...]
      <PointData>
        <DataArray type="Float64" NumberOfComponents="1" Name="P__PiezoPressure" format="ascii">
           +0.981000041961670E+005 +0.981000041961670E+005 +0.981000034610382E+005 +0.981000041961670E+005 +0.981000037471546E+005 +0.981000035662769E+005 +0.981000041961670E+005 +0.981000041961670E+005 +0.981000041961670E+005 +0.981000041961670E+005 +0.981000041961670E+005 +0.981000041961670E+005 +0.981000041961670E+005 +0.981000041961670E+005 +0.981000041961670E+005 +0.981000041961670E+005 +0.981000041961670E+005 +0.981000041961670E+005 +0.981000041961670E+005 +0.981000041961670E+005 +0.981000041961670E+005 +0.981000041961670E+005 +0.981000041961670E+005 +0.981000041961670E+005 +0.981000041961670E+005 +0.981000041961670E+005 +0.981000041961670E+005 +0.981000041961670E+005 +0.981000041961670E+005 +0.981000041961670E+005 +0.981000041961670E+005 +0.981000041961670E+005 +0.981000041961670E+005 +0.981000041961670E+005 +0.981000041961670E+005 +0.981000041961670E+005 +0.981000041961670E+005 +0.981000041961670E+005 +0.981000034723288E+005 +0.981000035092191E+005 +0.981000035770292E+005 +0.981000035706732E+005 +0.981000036511623E+005 +0.981000037780780E+005 +0.981000038904903E+005 +0.981000040322258E+005 +0.981000041514648E+005 +0.981000042525271E+005 +0.981000043262139E+005 +0.981000043772857E+005 +0.981000043713751E+005 +0.981000043039366E+005 +0.981000042896273E+005 +0.981000043199270E+005 +0.981000043454045E+005 +0.981000044098777E+005 +0.981000043947570E+005 +0.981000042857811E+005 +0.981000040199391E+005 +0.981000042819609E+005 +0.981000040363140E+005 +0.981000040595838E+005 +0.981000040272106E+005 +0.981000040089821E+005 +0.981000043689994E+005 +0.981000042801622E+005 +0.981000039868263E+005 +0.981000040369767E+005 +0.981000043600774E+005 +0.981000040419929E+005 +0.981000039444411E+005 +0.981000041737772E+005 +0.981000038921648E+005 +0.981000038134066E+005 +0.981000038291578E+005 +0.981000042890611E+005 +0.981000039872403E+005 +0.981000036157328E+005 +0.981000036223786E+005 +0.981000035725447E+005 +0.981000040647245E+005 +0.981000041194345E+005 +0.981000041067939E+005 +0.981000041429334E+005 +0.981000041558282E+005 +0.981000041306416E+005 +0.981000041683092E+005 +0.981000041781597E+005 +0.981000042129793E+005 +0.981000041699426E+005 +0.981000041108952E+005 +0.981000042017400E+005 +0.981000041306949E+005 +0.981000041757290E+005 +0.981000042482078E+005 +0.981000041029310E+005 +0.981000041342203E+005 +0.981000040108931E+005 +0.981000039939907E+005 +0.981000041345898E+005 +0.981000041553198E+005 +0.981000041213094E+005 +0.981000041737401E+005 +0.981000041805366E+005 +0.981000042538486E+005 +0.981000042079246E+005 +0.981000042200926E+005 +0.981000042483004E+005 +0.981000042159883E+005 +0.981000042319597E+005 +0.981000041158477E+005 +0.981000041918560E+005 +0.981000042151690E+005 +0.981000042181020E+005 +0.981000041672213E+005 +0.981000041690569E+005 +0.981000041904675E+005 +0.981000041581729E+005 +0.981000041736153E+005 +0.981000041734004E+005 +0.981000040805229E+005 +0.981000039306495E+005 +0.981000042914640E+005 +0.981000040938365E+005 +0.981000040888451E+005 +0.981000040980389E+005 +0.981000041193986E+005 +0.981000039957394E+005 +0.981000039587571E+005 +0.981000039767444E+005 +0.981000039581833E+005 +0.981000040414621E+005 +0.981000041463520E+005 +0.981000043474316E+005 +0.981000041763615E+005 +0.981000041477704E+005 +0.981000041503082E+005 +0.981000042661732E+005 +0.981000041447180E+005 +0.981000039271257E+005 +0.981000038264486E+005 +0.981000037764225E+005 +0.981000038921701E+005 +0.981000037585203E+005 +0.981000036493567E+005 +0.981000040278677E+005 +0.981000039609378E+005 +0.981000039578322E+005 +0.981000042399561E+005 +0.981000041062717E+005 +0.981000037681654E+005 +0.981000035100125E+005 +0.981000042554297E+005 +0.981000040851428E+005 +0.981000040505213E+005 +0.981000039970446E+005 +0.981000043692594E+005 +0.981000041060689E+005 +0.981000040057808E+005 +0.981000042262308E+005 +0.981000040768794E+005 +0.981000043795939E+005 +0.981000039434230E+005 +0.981000037119682E+005 +0.981000039551934E+005 +0.981000041259630E+005 +0.981000038660055E+005 +0.981000041939216E+005 +0.981000042501396E+005 +0.981000040567602E+005 +0.981000038418557E+005 +0.981000041795965E+005 +0.981000040949703E+005 +0.981000041223694E+005 +0.981000040761875E+005 +0.981000040411082E+005 +0.981000041949397E+005 +0.981000040020834E+005 +0.981000036655015E+005 +0.981000042257996E+005 +0.981000041320073E+005 +0.981000041689667E+005 +0.981000043617233E+005 +0.981000042313753E+005 +0.981000040763863E+005 +0.981000040530613E+005 +0.981000040824352E+005 +0.981000040724758E+005 +0.981000040252127E+005 +0.981000041020735E+005 +0.981000040878120E+005 +0.981000037460263E+005 +0.981000035060535E+005 +0.981000037973052E+005 +0.981000040064069E+005 +0.981000039820747E+005 +0.981000041132890E+005 +0.981000041618967E+005 +0.981000040759251E+005 +0.981000041472274E+005 +0.981000040380589E+005 +0.981000042807406E+005 +0.981000037521740E+005 +0.981000040695151E+005 +0.981000039463545E+005 +0.981000042657364E+005 +0.981000041961670E+005 +0.981000041961670E+005 +0.981000041961670E+005 +0.981000033759235E+005 +0.981000036312675E+005 +0.981000041961670E+005 +0.981000041961670E+005 +0.981000041961670E+005 +0.981000041961670E+005 +0.981000041961670E+005 +0.981000041961670E+005 +0.981000041961670E+005 +0.981000041961670E+005 +0.981000041961670E+005 +0.981000041961670E+005 +0.981000041961670E+005 +0.981000041961670E+005 +0.981000041961670E+005 +0.981000041961670E+005 +0.981000041961670E+005 +0.981000041961670E+005 +0.981000041961670E+005 +0.981000041961670E+005 +0.981000041961670E+005 +0.981000041961670E+005 +0.981000041961670E+005 +0.981000041961670E+005 +0.981000041961670E+005 +0.981000041961670E+005 +0.981000041961670E+005 +0.981000041961670E+005 +0.981000041961670E+005 +0.981000041961670E+005 +0.981000041961670E+005 +0.981000039367266E+005 +0.981000040889062E+005 +0.981000039576653E+005 +0.981000044068956E+005 +0.981000039839735E+005 +0.981000039799257E+005 +0.981000039928208E+005 +0.981000040227093E+005 +0.981000043515575E+005 +0.981000039864551E+005 +0.981000041753104E+005 +0.981000039476831E+005 +0.981000039713535E+005 +0.981000038501757E+005 +0.981000038769463E+005 +0.981000039455989E+005 +0.981000035539158E+005 +0.981000044476180E+005 +0.981000039522349E+005 +0.981000035481217E+005 +0.981000039000062E+005 +0.981000038150998E+005 +0.981000038946422E+005 +0.981000039400666E+005 +0.981000038749666E+005 +0.981000037496348E+005 +0.981000042842859E+005 +0.981000043111524E+005 +0.981000043382023E+005 +0.981000042585877E+005 +0.981000042004784E+005 +0.981000042446758E+005 +0.981000041042797E+005 +0.981000041186031E+005 +0.981000041456548E+005 +0.981000041224101E+005 +0.981000040319942E+005 +0.981000040931943E+005 +0.981000041199336E+005 +0.981000040892945E+005 +0.981000040538443E+005 +0.981000040771518E+005 +0.981000040630031E+005 +0.981000040607060E+005 +0.981000040166523E+005 +0.981000040015244E+005 +0.981000040661791E+005 +0.981000040597189E+005 +0.981000039965481E+005 +0.981000040317623E+005 +0.981000040038922E+005 +0.981000040236475E+005 +0.981000043006881E+005 +0.981000042392331E+005 +0.981000041721481E+005 +0.981000041299332E+005 +0.981000040411272E+005 +0.981000041506506E+005 +0.981000040544449E+005 +0.981000040543790E+005 +0.981000041418116E+005 +0.981000039637832E+005 +0.981000040511331E+005 +0.981000040660315E+005 +0.981000040246538E+005 +0.981000039892882E+005 +0.981000039134582E+005 +0.981000039089164E+005 +0.981000039286924E+005 +0.981000039643656E+005 +0.981000041094282E+005 +0.981000040949592E+005 +0.981000039270824E+005 +0.981000040383779E+005 +0.981000040255566E+005 +0.981000039934693E+005 +0.981000039530146E+005 +0.981000040798253E+005 +0.981000040593077E+005 +0.981000038859156E+005 +0.981000040242452E+005 +0.981000039115377E+005 +0.981000039303654E+005 +0.981000039340484E+005 +0.981000041413592E+005 +0.981000044462703E+005 +0.981000042616152E+005 +0.981000041184728E+005 +0.981000039219350E+005 +0.981000034776377E+005 +0.981000036876744E+005 +0.981000039325668E+005 +0.981000039689537E+005 +0.981000042184232E+005 +0.981000037375045E+005 +0.981000038304296E+005 +0.981000039566136E+005 +0.981000039509877E+005 +0.981000039650457E+005 +0.981000043199646E+005 +0.981000040734694E+005 +0.981000042693903E+005 +0.981000041905367E+005 +0.981000040458762E+005 +0.981000039005569E+005 +0.981000039445431E+005 +0.981000039353205E+005 +0.981000039433012E+005 +0.981000036496447E+005 +0.981000042038578E+005 +0.981000041312090E+005 +0.981000040662634E+005 +0.981000039087977E+005 +0.981000040375287E+005 +0.981000039855833E+005 +0.981000037771890E+005 +0.981000038543769E+005 +0.981000039161587E+005 +0.981000040354436E+005 +0.981000039570177E+005 +0.981000039590463E+005 +0.981000039708230E+005 +0.981000033979933E+005 +0.981000040630411E+005 +0.981000040007986E+005 +0.981000042775914E+005 +0.981000040993583E+005 +0.981000041076592E+005 +0.981000039981633E+005 +0.981000039405853E+005 +0.981000038246513E+005 +0.981000037113373E+005 +0.981000040288978E+005 +0.981000037714185E+005 +0.981000039516235E+005 +0.981000040218858E+005 +0.981000038958975E+005 +0.981000039207882E+005
        </DataArray>
      </PointData>
    </Piece>
  </UnstructuredGrid>
</VTKFile>
