<?xml version="1.0"?>
<VTKFile type="UnstructuredGrid" version="1.0" byte_order="LittleEndian">
  <UnstructuredGrid>
    <Piece NumberOfPoints="+155" NumberOfCells="+256">
      <Points>
        <DataArray type="Float64" NumberOfComponents="3" Name="Points" format="ascii">
           0.000000000000000E+000  0.000000000000000E+000  0.000000000000000E+000+0.100000000000000E+000  0.000000000000000E+000  0.000000000000000E+000+0.100000000000000E+000 +0.260000000000000E-001  0.000000000000000E+000 0.000000000000000E+000 +0.260000000000000E-001  0.000000000000000E+000+0.499999999999030E-002  0.000000000000000E+000  0.000000000000000E+000+0.999999999998248E-002  0.000000000000000E+000  0.000000000000000E+000+0.149999999999717E-001  0.000000000000000E+000  0.000000000000000E+000+0.199999999999560E-001  0.000000000000000E+000  0.000000000000000E+000+0.249999999999416E-001  0.000000000000000E+000  0.000000000000000E+000+0.299999999999273E-001  0.000000000000000E+000  0.000000000000000E+000+0.349999999999129E-001  0.000000000000000E+000  0.000000000000000E+000+0.399999999998958E-001  0.000000000000000E+000  0.000000000000000E+000+0.449999999998815E-001  0.000000000000000E+000  0.000000000000000E+000+0.499999999998685E-001  0.000000000000000E+000  0.000000000000000E+000+0.549999999998802E-001  0.000000000000000E+000  0.000000000000000E+000+0.599999999998943E-001  0.000000000000000E+000  0.000000000000000E+000+0.649999999999086E-001  0.000000000000000E+000  0.000000000000000E+000+0.699999999999197E-001  0.000000000000000E+000  0.000000000000000E+000+0.749999999999336E-001  0.000000000000000E+000  0.000000000000000E+000+0.799999999999474E-001  0.000000000000000E+000  0.000000000000000E+000+0.849999999999585E-001  0.000000000000000E+000  0.000000000000000E+000+0.899999999999729E-001  0.000000000000000E+000  0.000000000000000E+000+0.949999999999878E-001  0.000000000000000E+000  0.000000000000000E+000+0.100000000000000E+000 +0.433333333332438E-002  0.000000000000000E+000+0.100000000000000E+000 +0.866666666664460E-002  0.000000000000000E+000+0.100000000000000E+000 +0.129999999999662E-001  0.000000000000000E+000+0.100000000000000E+000 +0.173333333333106E-001  0.000000000000000E+000+0.100000000000000E+000 +0.216666666666560E-001  0.000000000000000E+000+0.950000000000138E-001 +0.260000000000000E-001  0.000000000000000E+000+0.900000000000276E-001 +0.260000000000000E-001  0.000000000000000E+000+0.850000000000415E-001 +0.260000000000000E-001  0.000000000000000E+000+0.800000000000553E-001 +0.260000000000000E-001  0.000000000000000E+000+0.750000000000691E-001 +0.260000000000000E-001  0.000000000000000E+000+0.700000000000829E-001 +0.260000000000000E-001  0.000000000000000E+000+0.650000000000968E-001 +0.260000000000000E-001  0.000000000000000E+000+0.600000000001106E-001 +0.260000000000000E-001  0.000000000000000E+000+0.550000000001244E-001 +0.260000000000000E-001  0.000000000000000E+000+0.500000000001369E-001 +0.260000000000000E-001  0.000000000000000E+000+0.450000000001247E-001 +0.260000000000000E-001  0.000000000000000E+000+0.400000000001100E-001 +0.260000000000000E-001  0.000000000000000E+000+0.350000000000951E-001 +0.260000000000000E-001  0.000000000000000E+000+0.300000000000835E-001 +0.260000000000000E-001  0.000000000000000E+000+0.250000000000691E-001 +0.260000000000000E-001  0.000000000000000E+000+0.200000000000548E-001 +0.260000000000000E-001  0.000000000000000E+000+0.150000000000431E-001 +0.260000000000000E-001  0.000000000000000E+000+0.100000000000282E-001 +0.260000000000000E-001  0.000000000000000E+000+0.500000000001274E-002 +0.260000000000000E-001  0.000000000000000E+000 0.000000000000000E+000 +0.216666666666761E-001  0.000000000000000E+000 0.000000000000000E+000 +0.173333333333561E-001  0.000000000000000E+000 0.000000000000000E+000 +0.130000000000335E-001  0.000000000000000E+000 0.000000000000000E+000 +0.866666666668923E-002  0.000000000000000E+000 0.000000000000000E+000 +0.433333333334393E-002  0.000000000000000E+000+0.474770501596061E-001 +0.449457555865549E-002  0.000000000000000E+000+0.624137095822587E-001 +0.218639104185592E-001  0.000000000000000E+000+0.274710820211137E-001 +0.439781066491993E-002  0.000000000000000E+000+0.775162404499768E-001 +0.218822875726493E-001  0.000000000000000E+000+0.175000000000489E-001 +0.216698729810677E-001  0.000000000000000E+000+0.374049377742800E-001 +0.217454153049271E-001  0.000000000000000E+000+0.873299162642599E-001 +0.493503711796043E-002  0.000000000000000E+000+0.962472232502677E-001 +0.151666666666384E-001  0.000000000000000E+000+0.361092965627013E-002 +0.107352657633569E-001  0.000000000000000E+000+0.524222487305538E-001 +0.217494710322139E-001  0.000000000000000E+000+0.724471979965309E-001 +0.480286472974082E-002  0.000000000000000E+000+0.574556233588582E-001 +0.465234046326982E-002  0.000000000000000E+000+0.374775082418216E-001 +0.443588749052796E-002  0.000000000000000E+000+0.174620748440649E-001 +0.432604372433973E-002  0.000000000000000E+000+0.274069445303662E-001 +0.216995189535168E-001  0.000000000000000E+000+0.875000000000345E-001 +0.216698729810898E-001  0.000000000000000E+000+0.768509429014877E-002 +0.215379337211246E-001  0.000000000000000E+000+0.963904321494850E-001 +0.661398939465712E-002  0.000000000000000E+000+0.727642177052906E-002 +0.443011470774208E-002  0.000000000000000E+000+0.124449834836647E-001 +0.431291926454894E-002  0.000000000000000E+000+0.149241258378327E-001 +0.860791945987163E-002  0.000000000000000E+000+0.199074884808963E-001 +0.868183890874860E-002  0.000000000000000E+000+0.173445817427756E-001 +0.129363585197896E-001  0.000000000000000E+000+0.223149927841523E-001 +0.130318645013867E-001  0.000000000000000E+000+0.124626594021863E-001 +0.128806353569139E-001  0.000000000000000E+000+0.148978737522776E-001 +0.172549170089808E-001  0.000000000000000E+000+0.100477085488613E-001 +0.173020481200621E-001  0.000000000000000E+000+0.248943288561033E-001 +0.874693478464290E-002  0.000000000000000E+000+0.273027333778438E-001 +0.131023208673426E-001  0.000000000000000E+000+0.298881968642471E-001 +0.882634524946797E-002  0.000000000000000E+000+0.322939746294813E-001 +0.132008562712349E-001  0.000000000000000E+000+0.348859478408316E-001 +0.889254633445792E-002  0.000000000000000E+000+0.372904969874290E-001 +0.132949678594278E-001  0.000000000000000E+000+0.398845499064174E-001 +0.897728704381017E-002  0.000000000000000E+000+0.422917602893396E-001 +0.133530215891990E-001  0.000000000000000E+000+0.448841050044180E-001 +0.904101635819934E-002  0.000000000000000E+000+0.472915329690292E-001 +0.134187777030845E-001  0.000000000000000E+000+0.448528380708523E-001 +0.175735435605107E-001  0.000000000000000E+000+0.498836917835918E-001 +0.911991320375936E-002  0.000000000000000E+000+0.522874069975051E-001 +0.135507216540452E-001  0.000000000000000E+000+0.548790812949033E-001 +0.921149949688830E-002  0.000000000000000E+000+0.572863231540567E-001 +0.136388959671376E-001  0.000000000000000E+000+0.598790589316415E-001 +0.918407375678816E-002  0.000000000000000E+000+0.623590312841999E-001 +0.136161871876397E-001  0.000000000000000E+000+0.648882846946340E-001 +0.929768835114423E-002  0.000000000000000E+000+0.673708037938968E-001 +0.137654412938815E-001  0.000000000000000E+000+0.698815075929149E-001 +0.944835648181582E-002  0.000000000000000E+000+0.723006618538128E-001 +0.138184730749027E-001  0.000000000000000E+000+0.699048578930071E-001 +0.178446291117357E-001  0.000000000000000E+000+0.748765735527623E-001 +0.937460219893974E-002  0.000000000000000E+000+0.773169545123332E-001 +0.138727132318244E-001  0.000000000000000E+000+0.798463307594286E-001 +0.960013646147148E-002  0.000000000000000E+000+0.823528893119287E-001 +0.139299421283865E-001  0.000000000000000E+000+0.847816044956594E-001 +0.970343309172691E-002  0.000000000000000E+000+0.872193013720580E-001 +0.140356141943716E-001  0.000000000000000E+000+0.894050078821107E-001 +0.926570675087459E-002  0.000000000000000E+000+0.824082332243445E-001 +0.499899823812024E-002  0.000000000000000E+000+0.674500068614159E-001 +0.480706579594959E-002  0.000000000000000E+000+0.102343281449715E-001 +0.864992134013922E-002  0.000000000000000E+000+0.125217794319013E-001 +0.216274619718725E-001  0.000000000000000E+000+0.530727028577484E-002 +0.174243678533301E-001  0.000000000000000E+000+0.927072212021592E-001 +0.216524795078309E-001  0.000000000000000E+000+0.825446721529249E-001 +0.217623324626207E-001  0.000000000000000E+000+0.248287209997012E-001 +0.173700977842713E-001  0.000000000000000E+000+0.774559974953847E-001 +0.467369623047021E-002  0.000000000000000E+000+0.524492410994514E-001 +0.457972145376216E-002  0.000000000000000E+000+0.424538688853401E-001 +0.449146107519883E-002  0.000000000000000E+000+0.624631306950981E-001 +0.456708086287553E-002  0.000000000000000E+000+0.324537891613090E-001 +0.442543162322896E-002  0.000000000000000E+000+0.224558290336793E-001 +0.435877134710853E-002  0.000000000000000E+000+0.323740723540678E-001 +0.216972078724282E-001  0.000000000000000E+000+0.573773859284986E-001 +0.217991888252024E-001  0.000000000000000E+000+0.198976948798363E-001 +0.173400626964691E-001  0.000000000000000E+000+0.962582298363988E-001 +0.110362954798282E-001  0.000000000000000E+000+0.224563524297887E-001 +0.217077368256298E-001  0.000000000000000E+000+0.921069635138181E-001 +0.135809272238655E-001  0.000000000000000E+000+0.923858042830145E-001 +0.440245293971425E-002  0.000000000000000E+000+0.474148725805479E-001 +0.218043592700527E-001  0.000000000000000E+000+0.297698604248976E-001 +0.173792298551515E-001  0.000000000000000E+000+0.734871392924924E-002 +0.128570511094810E-001  0.000000000000000E+000+0.363766117527133E-002 +0.655253480415738E-002  0.000000000000000E+000+0.347814593749260E-001 +0.174396077677385E-001  0.000000000000000E+000+0.964468684680814E-001 +0.193951920109048E-001  0.000000000000000E+000+0.398535820828240E-001 +0.175636784640132E-001  0.000000000000000E+000+0.424210384181232E-001 +0.217811660999173E-001  0.000000000
[...]
      <PointData>
        <DataArray type="Float64" NumberOfComponents="1" Name="T__TempConverged" format="ascii">
           +0.263150000000000E+003 +0.263150000000000E+003 +0.263150000000000E+003 +0.263150000000000E+003 +0.263150000000000E+003 +0.263150000000000E+003 +0.263150000000000E+003 +0.263150000000000E+003 +0.263150000000000E+003 +0.263150000000000E+003 +0.263150000000000E+003 +0.263150000000000E+003 +0.263150000000000E+003 +0.263150000000000E+003 +0.263150000000000E+003 +0.263150000000000E+003 +0.263150000000000E+003 +0.263150000000000E+003 +0.263150000000000E+003 +0.263150000000000E+003 +0.263150000000000E+003 +0.263150000000000E+003 +0.263150000000000E+003 +0.270447812308411E+003 +0.280199335673803E+003 +0.283742383698961E+003 +0.280291220497271E+003 +0.270871562413864E+003 +0.263150000000000E+003 +0.263150000000000E+003 +0.263150000000000E+003 +0.263150000000000E+003 +0.263150000000000E+003 +0.263150000000000E+003 +0.263150000000000E+003 +0.263150000000000E+003 +0.263150000000000E+003 +0.263150000000000E+003 +0.263150000000000E+003 +0.263150000000000E+003 +0.263150000000000E+003 +0.263150000000000E+003 +0.263150000000000E+003 +0.263150000000000E+003 +0.263150000000000E+003 +0.263150000000000E+003 +0.263150000000000E+003 +0.274094616065616E+003 +0.281478409568114E+003 +0.283974280136501E+003 +0.280236744716544E+003 +0.270862818862003E+003 +0.274149700305765E+003 +0.273321098390534E+003 +0.273943145569378E+003 +0.273275977283451E+003 +0.273779661750887E+003 +0.273609384283487E+003 +0.275181561858398E+003 +0.282907500373519E+003 +0.282788906957981E+003 +0.273603648697346E+003 +0.274835319767254E+003 +0.274522805990102E+003 +0.274023484594924E+003 +0.273779091486283E+003 +0.273711662548703E+003 +0.273853279297034E+003 +0.273996348581217E+003 +0.276206281108838E+003 +0.273432663773021E+003 +0.273787435032137E+003 +0.281399312707245E+003 +0.281483005144997E+003 +0.284366388080116E+003 +0.284350741434236E+003 +0.284320695052285E+003 +0.281547133986213E+003 +0.281468213810465E+003 +0.281553179790804E+003 +0.284341474376678E+003 +0.281643714355003E+003 +0.284336724407196E+003 +0.281720242547819E+003 +0.284329179194575E+003 +0.281813649135412E+003 +0.284312422313760E+003 +0.281878758825730E+003 +0.284290889209059E+003 +0.281139646022175E+003 +0.281955863737101E+003 +0.284265076352245E+003 +0.282053533261163E+003 +0.284246948505326E+003 +0.282010577962569E+003 +0.284229853546107E+003 +0.282120840043944E+003 +0.284201611059968E+003 +0.282270540477014E+003 +0.284175539108124E+003 +0.280734357834973E+003 +0.282180996825238E+003 +0.284159264546246E+003 +0.282432357308623E+003 +0.284167522853682E+003 +0.282572586679982E+003 +0.284137889812972E+003 +0.282026994186223E+003 +0.275277235376702E+003 +0.274860283902048E+003 +0.281297708231418E+003 +0.273864334229057E+003 +0.281192781028367E+003 +0.273227529772549E+003 +0.273573036385438E+003 +0.281411062044949E+003 +0.274490598980548E+003 +0.274349712383571E+003 +0.274157433457166E+003 +0.274282222458329E+003 +0.274006179266183E+003 +0.273850113888296E+003 +0.273726393601092E+003 +0.273482868938395E+003 +0.281447714659869E+003 +0.283005134171392E+003 +0.273685703750248E+003 +0.284080026761252E+003 +0.273367826999912E+003 +0.273458013025455E+003 +0.281398315982769E+003 +0.284250636796886E+003 +0.276160610152217E+003 +0.281317737131619E+003 +0.276327306769270E+003 +0.281153001474109E+003 +0.273518619449627E+003 +0.273205101981814E+003 +0.281143842175540E+003 +0.281104660154034E+003 +0.280904787524523E+003 +0.280806171201544E+003 +0.280821613836733E+003 +0.273220905239141E+003 +0.280579658834981E+003 +0.280674413676895E+003 +0.280580499997565E+003 +0.275223290080176E+003 +0.281056013100988E+003 +0.283718380453377E+003 +0.280464507432671E+003 +0.268960749804367E+003 +0.268991926165345E+003 +0.268983015034334E+003 +0.280601530381152E+003
        </DataArray>
        <DataArray type="Float64" NumberOfComponents="1" Name="R__Res" format="ascii">
            0.000000000000000E+000  0.000000000000000E+000  0.000000000000000E+000  0.000000000000000E+000  0.000000000000000E+000  0.000000000000000E+000  0.000000000000000E+000  0.000000000000000E+000  0.000000000000000E+000  0.000000000000000E+000  0.000000000000000E+000  0.000000000000000E+000  0.000000000000000E+000  0.000000000000000E+000  0.000000000000000E+000  0.000000000000000E+000  0.000000000000000E+000  0.000000000000000E+000  0.000000000000000E+000  0.000000000000000E+000  0.000000000000000E+000  0.000000000000000E+000  0.000000000000000E+000 +0.472519794113007E-001 -0.309439494741598E-002 -0.246902498446389E-010 +0.496952798947803E-002 -0.271766667766237E-001  0.000000000000000E+000  0.000000000000000E+000  0.000000000000000E+000  0.000000000000000E+000  0.000000000000000E+000  0.000000000000000E+000  0.000000000000000E+000  0.000000000000000E+000  0.000000000000000E+000  0.000000000000000E+000  0.000000000000000E+000  0.000000000000000E+000  0.000000000000000E+000  0.000000000000000E+000  0.000000000000000E+000  0.000000000000000E+000  0.000000000000000E+000  0.000000000000000E+000  0.000000000000000E+000 -0.533440894016777E-001 -0.229597452161556E-010 -0.199209815310297E-010 +0.504725809798520E-002 -0.246919233256166E-001 -0.171025183446924E+000 -0.184941300034054E+000 -0.179997083974532E+000 -0.186515738124469E+000 -0.183935464919244E+000 -0.180570469821087E+000 -0.144066315903648E+000 -0.419941859064465E-010 -0.371829234069310E-010 -0.181504773157828E+000 -0.151549731887901E+000 -0.163939113999650E+000 -0.176124712438154E+000 -0.184470957190953E+000 -0.185787540129797E+000 -0.200856686740930E+000 -0.153021319218701E+000 +0.114973194878276E-001 -0.978580961964552E-001 -0.198951976983011E+000 -0.563865620861748E-010 -0.218953744024475E-010 -0.475708916702899E-010 -0.579742365225400E-010 -0.467260119485502E-010 -0.452456960786662E-010 +0.311262127183909E-010 -0.519966292245044E-010 -0.365707464311527E-011 -0.503941333107605E-010 -0.585680393072607E-010 -0.468783900586800E-010 -0.468993177626942E-010 -0.592739191063174E-010 -0.447065162667570E-010 -0.576669823004750E-010 -0.601318439485965E-010 -0.614915895980062E-010 -0.517086373719167E-010 -0.556381607452749E-010 -0.411284339918438E-010 -0.491317542206104E-010 -0.497424323953055E-010 -0.568275981827071E-010 -0.493285412517253E-010 -0.529426502637875E-010 -0.559478019468429E-010 -0.603875838223189E-010 -0.566611202401646E-010 -0.405274702686143E-010 -0.668911592782706E-010 -0.378833076020157E-010 -0.759208251821519E-010 -0.362044838553288E-010 -0.537647704135225E-010 -0.481128470397607E-010 -0.128578118931043E+000 -0.153039940617926E+000 -0.397598620693884E-010 -0.179122533104898E+000 -0.852340420465225E-011 -0.938589035704978E-001 -0.180190931321814E+000 +0.908051411840916E-012 -0.149952494126023E+000 -0.166082887342008E+000 -0.173910503443025E+000 -0.160893641184776E+000 -0.178171728188472E+000 -0.182495691167981E+000 -0.187747029579368E+000 -0.182301224715505E+000 +0.304798408734541E-010 -0.452389237182160E-010 -0.185244295459077E+000 +0.495651297782729E-010 -0.826236979438122E-001 -0.180860078353614E+000 +0.250279796887298E-010 -0.199757432817194E-010 +0.127811689837896E-001 +0.632176533343909E-010 +0.645337412991109E-002 -0.666857680187150E-010 -0.181205671590952E+000 -0.187276399227301E+000 -0.260228505410964E-010 +0.336792815858189E-010 +0.290589774465388E-010 +0.616994233482160E-010 -0.191751059475109E-010 -0.184600511772302E+000 -0.116548992679100E-010 -0.496220842194361E-010 +0.214319673119689E-010 -0.118941986821963E+000 +0.426454982438429E-010 -0.238279118658369E-010 +0.371480624039577E-011 +0.511064148669380E-001 +0.605334135666773E-001 +0.734660672304122E-001 -0.154389834250424E-010
        </DataArray>
      </PointData>
    </Piece>
  </UnstructuredGrid>
</VTKFile>
