<?xml version="1.0"?>
<VTKFile type="UnstructuredGrid" version="1.0" byte_order="LittleEndian">
  <UnstructuredGrid>
    <Piece NumberOfPoints="+155" NumberOfCells="+256">
      <Points>
        <DataArray type="Float64" NumberOfComponents="3" Name="Points" format="ascii">
           0.000000000000000E+000  0.000000000000000E+000  0.000000000000000E+000+0.100000000000000E+000  0.000000000000000E+000  0.000000000000000E+000+0.100000000000000E+000 +0.260000000000000E-001  0.000000000000000E+000 0.000000000000000E+000 +0.260000000000000E-001  0.000000000000000E+000+0.499999999999030E-002  0.000000000000000E+000  0.000000000000000E+000+0.999999999998248E-002  0.000000000000000E+000  0.000000000000000E+000+0.149999999999717E-001  0.000000000000000E+000  0.000000000000000E+000+0.199999999999560E-001  0.000000000000000E+000  0.000000000000000E+000+0.249999999999416E-001  0.000000000000000E+000  0.000000000000000E+000+0.299999999999273E-001  0.000000000000000E+000  0.000000000000000E+000+0.349999999999129E-001  0.000000000000000E+000  0.000000000000000E+000+0.399999999998958E-001  0.000000000000000E+000  0.000000000000000E+000+0.449999999998815E-001  0.000000000000000E+000  0.000000000000000E+000+0.499999999998685E-001  0.000000000000000E+000  0.000000000000000E+000+0.549999999998802E-001  0.000000000000000E+000  0.000000000000000E+000+0.599999999998943E-001  0.000000000000000E+000  0.000000000000000E+000+0.649999999999086E-001  0.000000000000000E+000  0.000000000000000E+000+0.699999999999197E-001  0.000000000000000E+000  0.000000000000000E+000+0.749999999999336E-001  0.000000000000000E+000  0.000000000000000E+000+0.799999999999474E-001  0.000000000000000E+000  0.000000000000000E+000+0.849999999999585E-001  0.000000000000000E+000  0.000000000000000E+000+0.899999999999729E-001  0.000000000000000E+000  0.000000000000000E+000+0.949999999999878E-001  0.000000000000000E+000  0.000000000000000E+000+0.100000000000000E+000 +0.433333333332438E-002  0.000000000000000E+000+0.100000000000000E+000 +0.866666666664460E-002  0.000000000000000E+000+0.100000000000000E+000 +0.129999999999662E-001  0.000000000000000E+000+0.100000000000000E+000 +0.173333333333106E-001  0.000000000000000E+000+0.100000000000000E+000 +0.216666666666560E-001  0.000000000000000E+000+0.950000000000138E-001 +0.260000000000000E-001  0.000000000000000E+000+0.900000000000276E-001 +0.260000000000000E-001  0.000000000000000E+000+0.850000000000415E-001 +0.260000000000000E-001  0.000000000000000E+000+0.800000000000553E-001 +0.260000000000000E-001  0.000000000000000E+000+0.750000000000691E-001 +0.260000000000000E-001  0.000000000000000E+000+0.700000000000829E-001 +0.260000000000000E-001  0.000000000000000E+000+0.650000000000968E-001 +0.260000000000000E-001  0.000000000000000E+000+0.600000000001106E-001 +0.260000000000000E-001  0.000000000000000E+000+0.550000000001244E-001 +0.260000000000000E-001  0.000000000000000E+000+0.500000000001369E-001 +0.260000000000000E-001  0.000000000000000E+000+0.450000000001247E-001 +0.260000000000000E-001  0.000000000000000E+000+0.400000000001100E-001 +0.260000000000000E-001  0.000000000000000E+000+0.350000000000951E-001 +0.260000000000000E-001  0.000000000000000E+000+0.300000000000835E-001 +0.260000000000000E-001  0.000000000000000E+000+0.250000000000691E-001 +0.260000000000000E-001  0.000000000000000E+000+0.200000000000548E-001 +0.260000000000000E-001  0.000000000000000E+000+0.150000000000431E-001 +0.260000000000000E-001  0.000000000000000E+000+0.100000000000282E-001 +0.260000000000000E-001  0.000000000000000E+000+0.500000000001274E-002 +0.260000000000000E-001  0.000000000000000E+000 0.000000000000000E+000 +0.216666666666761E-001  0.000000000000000E+000 0.000000000000000E+000 +0.173333333333561E-001  0.000000000000000E+000 0.000000000000000E+000 +0.130000000000335E-001  0.000000000000000E+000 0.000000000000000E+000 +0.866666666668923E-002  0.000000000000000E+000 0.000000000000000E+000 +0.433333333334393E-002  0.000000000000000E+000+0.474770501596061E-001 +0.449457555865549E-002  0.000000000000000E+000+0.624137095822587E-001 +0.218639104185592E-001  0.000000000000000E+000+0.274710820211137E-001 +0.439781066491993E-002  0.000000000000000E+000+0.775162404499768E-001 +0.218822875726493E-001  0.000000000000000E+000+0.175000000000489E-001 +0.216698729810677E-001  0.000000000000000E+000+0.374049377742800E-001 +0.217454153049271E-001  0.000000000000000E+000+0.873299162642599E-001 +0.493503711796043E-002  0.000000000000000E+000+0.962472232502677E-001 +0.151666666666384E-001  0.000000000000000E+000+0.361092965627013E-002 +0.107352657633569E-001  0.000000000000000E+000+0.524222487305538E-001 +0.217494710322139E-001  0.000000000000000E+000+0.724471979965309E-001 +0.480286472974082E-002  0.000000000000000E+000+0.574556233588582E-001 +0.465234046326982E-002  0.000000000000000E+000+0.374775082418216E-001 +0.443588749052796E-002  0.000000000000000E+000+0.174620748440649E-001 +0.432604372433973E-002  0.000000000000000E+000+0.274069445303662E-001 +0.216995189535168E-001  0.000000000000000E+000+0.875000000000345E-001 +0.216698729810898E-001  0.000000000000000E+000+0.768509429014877E-002 +0.215379337211246E-001  0.000000000000000E+000+0.963904321494850E-001 +0.661398939465712E-002  0.000000000000000E+000+0.727642177052906E-002 +0.443011470774208E-002  0.000000000000000E+000+0.124449834836647E-001 +0.431291926454894E-002  0.000000000000000E+000+0.149241258378327E-001 +0.860791945987163E-002  0.000000000000000E+000+0.199074884808963E-001 +0.868183890874860E-002  0.000000000000000E+000+0.173445817427756E-001 +0.129363585197896E-001  0.000000000000000E+000+0.223149927841523E-001 +0.130318645013867E-001  0.000000000000000E+000+0.124626594021863E-001 +0.128806353569139E-001  0.000000000000000E+000+0.148978737522776E-001 +0.172549170089808E-001  0.000000000000000E+000+0.100477085488613E-001 +0.173020481200621E-001  0.000000000000000E+000+0.248943288561033E-001 +0.874693478464290E-002  0.000000000000000E+000+0.273027333778438E-001 +0.131023208673426E-001  0.000000000000000E+000+0.298881968642471E-001 +0.882634524946797E-002  0.000000000000000E+000+0.322939746294813E-001 +0.132008562712349E-001  0.000000000000000E+000+0.348859478408316E-001 +0.889254633445792E-002  0.000000000000000E+000+0.372904969874290E-001 +0.132949678594278E-001  0.000000000000000E+000+0.398845499064174E-001 +0.897728704381017E-002  0.000000000000000E+000+0.422917602893396E-001 +0.133530215891990E-001  0.000000000000000E+000+0.448841050044180E-001 +0.904101635819934E-002  0.000000000000000E+000+0.472915329690292E-001 +0.134187777030845E-001  0.000000000000000E+000+0.448528380708523E-001 +0.175735435605107E-001  0.000000000000000E+000+0.498836917835918E-001 +0.911991320375936E-002  0.000000000000000E+000+0.522874069975051E-001 +0.135507216540452E-001  0.000000000000000E+000+0.548790812949033E-001 +0.921149949688830E-002  0.000000000000000E+000+0.572863231540567E-001 +0.136388959671376E-001  0.000000000000000E+000+0.598790589316415E-001 +0.918407375678816E-002  0.000000000000000E+000+0.623590312841999E-001 +0.136161871876397E-001  0.000000000000000E+000+0.648882846946340E-001 +0.929768835114423E-002  0.000000000000000E+000+0.673708037938968E-001 +0.137654412938815E-001  0.000000000000000E+000+0.698815075929149E-001 +0.944835648181582E-002  0.000000000000000E+000+0.723006618538128E-001 +0.138184730749027E-001  0.000000000000000E+000+0.699048578930071E-001 +0.178446291117357E-001  0.000000000000000E+000+0.748765735527623E-001 +0.937460219893974E-002  0.000000000000000E+000+0.773169545123332E-001 +0.138727132318244E-001  0.000000000000000E+000+0.798463307594286E-001 +0.960013646147148E-002  0.000000000000000E+000+0.823528893119287E-001 +0.139299421283865E-001  0.000000000000000E+000+0.847816044956594E-001 +0.970343309172691E-002  0.000000000000000E+000+0.872193013720580E-001 +0.140356141943716E-001  0.000000000000000E+000+0.894050078821107E-001 +0.926570675087459E-002  0.000000000000000E+000+0.824082332243445E-001 +0.499899823812024E-002  0.000000000000000E+000+0.674500068614159E-001 +0.480706579594959E-002  0.000000000000000E+000+0.102343281449715E-001 +0.864992134013922E-002  0.000000000000000E+000+0.125217794319013E-001 +0.216274619718725E-001  0.000000000000000E+000+0.530727028577484E-002 +0.174243678533301E-001  0.000000000000000E+000+0.927072212021592E-001 +0.216524795078309E-001  0.000000000000000E+000+0.825446721529249E-001 +0.217623324626207E-001  0.000000000000000E+000+0.248287209997012E-001 +0.173700977842713E-001  0.000000000000000E+000+0.774559974953847E-001 +0.467369623047021E-002  0.000000000000000E+000+0.524492410994514E-001 +0.457972145376216E-002  0.000000000000000E+000+0.424538688853401E-001 +0.449146107519883E-002  0.000000000000000E+000+0.624631306950981E-001 +0.456708086287553E-002  0.000000000000000E+000+0.324537891613090E-001 +0.442543162322896E-002  0.000000000000000E+000+0.224558290336793E-001 +0.435877134710853E-002  0.000000000000000E+000+0.323740723540678E-001 +0.216972078724282E-001  0.000000000000000E+000+0.573773859284986E-001 +0.217991888252024E-001  0.000000000000000E+000+0.198976948798363E-001 +0.173400626964691E-001  0.000000000000000E+000+0.962582298363988E-001 +0.110362954798282E-001  0.000000000000000E+000+0.224563524297887E-001 +0.217077368256298E-001  0.000000000000000E+000+0.921069635138181E-001 +0.135809272238655E-001  0.000000000000000E+000+0.923858042830145E-001 +0.440245293971425E-002  0.000000000000000E+000+0.474148725805479E-001 +0.218043592700527E-001  0.000000000000000E+000+0.297698604248976E-001 +0.173792298551515E-001  0.000000000000000E+000+0.734871392924924E-002 +0.128570511094810E-001  0.000000000000000E+000+0.363766117527133E-002 +0.655253480415738E-002  0.000000000000000E+000+0.347814593749260E-001 +0.174396077677385E-001  0.000000000000000E+000+0.964468684680814E-001 +0.193951920109048E-001  0.000000000000000E+000+0.398535820828240E-001 +0.175636784640132E-001  0.000000000000000E+000+0.424210384181232E-001 +0.217811660999173E-001  0.000000000
[...]
      <PointData>
        <DataArray type="Float64" NumberOfComponents="1" Name="T__TempConverged" format="ascii">
           +0.263150000000000E+003 +0.263150000000000E+003 +0.263150000000000E+003 +0.263150000000000E+003 +0.263150000000000E+003 +0.263150000000000E+003 +0.263150000000000E+003 +0.263150000000000E+003 +0.263150000000000E+003 +0.263150000000000E+003 +0.263150000000000E+003 +0.263150000000000E+003 +0.263150000000000E+003 +0.263150000000000E+003 +0.263150000000000E+003 +0.263150000000000E+003 +0.263150000000000E+003 +0.263150000000000E+003 +0.263150000000000E+003 +0.263150000000000E+003 +0.263150000000000E+003 +0.263150000000000E+003 +0.263150000000000E+003 +0.279086816023641E+003 +0.291183234426470E+003 +0.295605876144646E+003 +0.291264245592808E+003 +0.279107061976320E+003 +0.263150000000000E+003 +0.263150000000000E+003 +0.263150000000000E+003 +0.263150000000000E+003 +0.263150000000000E+003 +0.263150000000000E+003 +0.263150000000000E+003 +0.263150000000000E+003 +0.263150000000000E+003 +0.263150000000000E+003 +0.263150000000000E+003 +0.263150000000000E+003 +0.263150000000000E+003 +0.263150000000000E+003 +0.263150000000000E+003 +0.263150000000000E+003 +0.263150000000000E+003 +0.263150000000000E+003 +0.263150000000000E+003 +0.277595449516325E+003 +0.290596275776495E+003 +0.295310442094804E+003 +0.291138914391942E+003 +0.279086247664359E+003 +0.278503787282850E+003 +0.277593033375819E+003 +0.278275367906634E+003 +0.277534906268399E+003 +0.278101677077170E+003 +0.277909993526929E+003 +0.279678937823359E+003 +0.294402497227874E+003 +0.294082492699648E+003 +0.277914599523564E+003 +0.279288186764913E+003 +0.278925548659842E+003 +0.278363056488455E+003 +0.278090560448678E+003 +0.278028974303694E+003 +0.278118338848058E+003 +0.278393894663324E+003 +0.286022857700024E+003 +0.278703581309856E+003 +0.278046658026609E+003 +0.290744369154972E+003 +0.290845293983806E+003 +0.295385592424022E+003 +0.295371421827796E+003 +0.295347503413230E+003 +0.290937822055869E+003 +0.290777736897304E+003 +0.290947952660691E+003 +0.295358691290701E+003 +0.291080233571206E+003 +0.295352083206468E+003 +0.291196323253641E+003 +0.295346299985137E+003 +0.291336481669550E+003 +0.295328595818724E+003 +0.291433743445141E+003 +0.295300066423928E+003 +0.290387281110182E+003 +0.291545447570063E+003 +0.295261350407120E+003 +0.291681692096689E+003 +0.295242751926788E+003 +0.291613851810912E+003 +0.295230693573639E+003 +0.291774139311260E+003 +0.295200309575913E+003 +0.291990068149894E+003 +0.295165857835920E+003 +0.289843122742883E+003 +0.291853597909929E+003 +0.295121463518576E+003 +0.292215990469198E+003 +0.295076123607223E+003 +0.292411293879715E+003 +0.295071833565945E+003 +0.291891146830096E+003 +0.279813314648257E+003 +0.279318748240371E+003 +0.290957563391337E+003 +0.278190918575714E+003 +0.290225413837500E+003 +0.278462133070969E+003 +0.277870536895698E+003 +0.290763627174451E+003 +0.278895011469195E+003 +0.278729814400325E+003 +0.278514346503587E+003 +0.278650618723749E+003 +0.278345060715070E+003 +0.278174386026501E+003 +0.278041814894266E+003 +0.277777608251463E+003 +0.290809613671740E+003 +0.294541659595356E+003 +0.278000080292414E+003 +0.295402672835353E+003 +0.278529835243499E+003 +0.277741877221414E+003 +0.290741196844159E+003 +0.295461809076745E+003 +0.285838758292108E+003 +0.290623836258983E+003 +0.286085722919652E+003 +0.290386606488463E+003 +0.277814831907805E+003 +0.277463211811791E+003 +0.290390425036281E+003 +0.290328950166820E+003 +0.290050675080459E+003 +0.289935792454098E+003 +0.290181855980419E+003 +0.277489533394502E+003 +0.289441979782217E+003 +0.289740137285447E+003 +0.289522182716479E+003 +0.279875613464291E+003 +0.291364107170454E+003 +0.294604355901713E+003 +0.290530706883701E+003 +0.273836003538500E+003 +0.273792083859786E+003 +0.273788012703593E+003 +0.290751759058351E+003
        </DataArray>
        <DataArray type="Float64" NumberOfComponents="1" Name="R__Res" format="ascii">
            0.000000000000000E+000  0.000000000000000E+000  0.000000000000000E+000  0.000000000000000E+000  0.000000000000000E+000  0.000000000000000E+000  0.000000000000000E+000  0.000000000000000E+000  0.000000000000000E+000  0.000000000000000E+000  0.000000000000000E+000  0.000000000000000E+000  0.000000000000000E+000  0.000000000000000E+000  0.000000000000000E+000  0.000000000000000E+000  0.000000000000000E+000  0.000000000000000E+000  0.000000000000000E+000  0.000000000000000E+000  0.000000000000000E+000  0.000000000000000E+000  0.000000000000000E+000 -0.852471341682356E-001 +0.207399603047165E-008 +0.223362095486124E-008 +0.202966421447570E-008 -0.848014141821006E-001  0.000000000000000E+000  0.000000000000000E+000  0.000000000000000E+000  0.000000000000000E+000  0.000000000000000E+000  0.000000000000000E+000  0.000000000000000E+000  0.000000000000000E+000  0.000000000000000E+000  0.000000000000000E+000  0.000000000000000E+000  0.000000000000000E+000  0.000000000000000E+000  0.000000000000000E+000  0.000000000000000E+000  0.000000000000000E+000  0.000000000000000E+000  0.000000000000000E+000  0.000000000000000E+000 -0.383548592360938E-001 +0.271948197294591E-008 +0.195778254719059E-008 +0.202566335927301E-008 -0.855227998842749E-001 -0.177047513884798E+000 -0.227684560457936E+000 -0.178167466044881E+000 -0.230639501238385E+000 -0.209882909379579E+000 -0.217316624953138E+000 -0.165984457694032E+000 +0.417544343545018E-008 +0.381598352916512E-008 -0.216181263122663E+000 -0.171978415402453E+000 -0.174435196095091E+000 -0.177821713912705E+000 -0.210678852944735E+000 -0.211940478337687E+000 -0.207629414293541E+000 -0.164515645458975E+000 +0.122407324276708E-007 -0.198074311459445E+000 -0.211176760516237E+000 -0.231748309431623E-008 +0.671548061603744E-008 +0.785229259392395E-008 +0.528153953904820E-008 +0.850309378463976E-008 +0.586713255756877E-008 +0.136077318302341E-007 +0.128813271160766E-008 +0.655161358498191E-008 +0.543320810564296E-008 +0.336769634401435E-008 +0.561743940252768E-008 +0.125136796480518E-007 +0.743667349922816E-010 +0.715129577777418E-008 +0.489989848695416E-008 +0.509938657966558E-008 +0.600438876396936E-008 +0.751709960944424E-008 +0.637603925213170E-008 +0.106445567915614E-007 +0.194792734165006E-007 +0.408246991767669E-008 +0.389946630541260E-008 +0.580822523410518E-008 +0.440783265442946E-008 +0.771698083212868E-008 +0.643396769195448E-008 +0.791889109841293E-008 +0.522280907411243E-008 +0.101944148678257E-007 +0.110324485103064E-007 +0.796065457997486E-008 +0.931707277995741E-008 +0.413340539573426E-008 +0.524482435260154E-008 -0.166560671636526E+000 -0.171421634491709E+000 +0.356120177791297E-008 -0.176639194968752E+000 +0.218806883722777E-008 -0.200370246126693E+000 -0.217185724570802E+000 +0.796218335707977E-008 -0.174149326957808E+000 -0.175275854945038E+000 -0.176951964145776E+000 -0.176009308794454E+000 -0.177917485432347E+000 -0.178890732397424E+000 -0.212321094332476E+000 -0.221087287780476E+000 +0.163785756068791E-007 +0.435186309211133E-008 -0.212928738245809E+000 +0.134836228848911E-007 -0.200199434592363E+000 -0.222213352218579E+000 +0.397717547784282E-008 +0.760542295807909E-008 -0.904705199644695E-009 +0.714087899922333E-008 -0.120830585537135E-007 -0.294996804761638E-007 -0.220162784267210E+000 -0.232552882357762E+000 +0.131850044216009E-007 +0.197574197002837E-007 -0.974007852150294E-008 +0.663530030919901E-008 -0.168444387327327E-007 -0.230423243420605E+000 -0.162877784593007E-007 +0.256704617562775E-007 -0.300503755212844E-008 -0.143279476912574E+000 -0.154630426241198E-007 +0.960816481931914E-008 -0.122240402244955E-007 -0.307143216549517E+000 -0.299019325165788E+000 -0.300036274035361E+000 +0.199185921645473E-007
        </DataArray>
      </PointData>
    </Piece>
  </UnstructuredGrid>
</VTKFile>
