<?xml version="1.0"?>
<VTKFile type="UnstructuredGrid" version="1.0" byte_order="LittleEndian">
  <UnstructuredGrid>
    <Piece NumberOfPoints="+155" NumberOfCells="+256">
      <Points>
        <DataArray type="Float64" NumberOfComponents="3" Name="Points" format="ascii">
           0.000000000000000E+000  0.000000000000000E+000  0.000000000000000E+000+0.100000000000000E+000  0.000000000000000E+000  0.000000000000000E+000+0.100000000000000E+000 +0.260000000000000E-001  0.000000000000000E+000 0.000000000000000E+000 +0.260000000000000E-001  0.000000000000000E+000+0.499999999999030E-002  0.000000000000000E+000  0.000000000000000E+000+0.999999999998248E-002  0.000000000000000E+000  0.000000000000000E+000+0.149999999999717E-001  0.000000000000000E+000  0.000000000000000E+000+0.199999999999560E-001  0.000000000000000E+000  0.000000000000000E+000+0.249999999999416E-001  0.000000000000000E+000  0.000000000000000E+000+0.299999999999273E-001  0.000000000000000E+000  0.000000000000000E+000+0.349999999999129E-001  0.000000000000000E+000  0.000000000000000E+000+0.399999999998958E-001  0.000000000000000E+000  0.000000000000000E+000+0.449999999998815E-001  0.000000000000000E+000  0.000000000000000E+000+0.499999999998685E-001  0.000000000000000E+000  0.000000000000000E+000+0.549999999998802E-001  0.000000000000000E+000  0.000000000000000E+000+0.599999999998943E-001  0.000000000000000E+000  0.000000000000000E+000+0.649999999999086E-001  0.000000000000000E+000  0.000000000000000E+000+0.699999999999197E-001  0.000000000000000E+000  0.000000000000000E+000+0.749999999999336E-001  0.000000000000000E+000  0.000000000000000E+000+0.799999999999474E-001  0.000000000000000E+000  0.000000000000000E+000+0.849999999999585E-001  0.000000000000000E+000  0.000000000000000E+000+0.899999999999729E-001  0.000000000000000E+000  0.000000000000000E+000+0.949999999999878E-001  0.000000000000000E+000  0.000000000000000E+000+0.100000000000000E+000 +0.433333333332438E-002  0.000000000000000E+000+0.100000000000000E+000 +0.866666666664460E-002  0.000000000000000E+000+0.100000000000000E+000 +0.129999999999662E-001  0.000000000000000E+000+0.100000000000000E+000 +0.173333333333106E-001  0.000000000000000E+000+0.100000000000000E+000 +0.216666666666560E-001  0.000000000000000E+000+0.950000000000138E-001 +0.260000000000000E-001  0.000000000000000E+000+0.900000000000276E-001 +0.260000000000000E-001  0.000000000000000E+000+0.850000000000415E-001 +0.260000000000000E-001  0.000000000000000E+000+0.800000000000553E-001 +0.260000000000000E-001  0.000000000000000E+000+0.750000000000691E-001 +0.260000000000000E-001  0.000000000000000E+000+0.700000000000829E-001 +0.260000000000000E-001  0.000000000000000E+000+0.650000000000968E-001 +0.260000000000000E-001  0.000000000000000E+000+0.600000000001106E-001 +0.260000000000000E-001  0.000000000000000E+000+0.550000000001244E-001 +0.260000000000000E-001  0.000000000000000E+000+0.500000000001369E-001 +0.260000000000000E-001  0.000000000000000E+000+0.450000000001247E-001 +0.260000000000000E-001  0.000000000000000E+000+0.400000000001100E-001 +0.260000000000000E-001  0.000000000000000E+000+0.350000000000951E-001 +0.260000000000000E-001  0.000000000000000E+000+0.300000000000835E-001 +0.260000000000000E-001  0.000000000000000E+000+0.250000000000691E-001 +0.260000000000000E-001  0.000000000000000E+000+0.200000000000548E-001 +0.260000000000000E-001  0.000000000000000E+000+0.150000000000431E-001 +0.260000000000000E-001  0.000000000000000E+000+0.100000000000282E-001 +0.260000000000000E-001  0.000000000000000E+000+0.500000000001274E-002 +0.260000000000000E-001  0.000000000000000E+000 0.000000000000000E+000 +0.216666666666761E-001  0.000000000000000E+000 0.000000000000000E+000 +0.173333333333561E-001  0.000000000000000E+000 0.000000000000000E+000 +0.130000000000335E-001  0.000000000000000E+000 0.000000000000000E+000 +0.866666666668923E-002  0.000000000000000E+000 0.000000000000000E+000 +0.433333333334393E-002  0.000000000000000E+000+0.474770501596061E-001 +0.449457555865549E-002  0.000000000000000E+000+0.624137095822587E-001 +0.218639104185592E-001  0.000000000000000E+000+0.274710820211137E-001 +0.439781066491993E-002  0.000000000000000E+000+0.775162404499768E-001 +0.218822875726493E-001  0.000000000000000E+000+0.175000000000489E-001 +0.216698729810677E-001  0.000000000000000E+000+0.374049377742800E-001 +0.217454153049271E-001  0.000000000000000E+000+0.873299162642599E-001 +0.493503711796043E-002  0.000000000000000E+000+0.962472232502677E-001 +0.151666666666384E-001  0.000000000000000E+000+0.361092965627013E-002 +0.107352657633569E-001  0.000000000000000E+000+0.524222487305538E-001 +0.217494710322139E-001  0.000000000000000E+000+0.724471979965309E-001 +0.480286472974082E-002  0.000000000000000E+000+0.574556233588582E-001 +0.465234046326982E-002  0.000000000000000E+000+0.374775082418216E-001 +0.443588749052796E-002  0.000000000000000E+000+0.174620748440649E-001 +0.432604372433973E-002  0.000000000000000E+000+0.274069445303662E-001 +0.216995189535168E-001  0.000000000000000E+000+0.875000000000345E-001 +0.216698729810898E-001  0.000000000000000E+000+0.768509429014877E-002 +0.215379337211246E-001  0.000000000000000E+000+0.963904321494850E-001 +0.661398939465712E-002  0.000000000000000E+000+0.727642177052906E-002 +0.443011470774208E-002  0.000000000000000E+000+0.124449834836647E-001 +0.431291926454894E-002  0.000000000000000E+000+0.149241258378327E-001 +0.860791945987163E-002  0.000000000000000E+000+0.199074884808963E-001 +0.868183890874860E-002  0.000000000000000E+000+0.173445817427756E-001 +0.129363585197896E-001  0.000000000000000E+000+0.223149927841523E-001 +0.130318645013867E-001  0.000000000000000E+000+0.124626594021863E-001 +0.128806353569139E-001  0.000000000000000E+000+0.148978737522776E-001 +0.172549170089808E-001  0.000000000000000E+000+0.100477085488613E-001 +0.173020481200621E-001  0.000000000000000E+000+0.248943288561033E-001 +0.874693478464290E-002  0.000000000000000E+000+0.273027333778438E-001 +0.131023208673426E-001  0.000000000000000E+000+0.298881968642471E-001 +0.882634524946797E-002  0.000000000000000E+000+0.322939746294813E-001 +0.132008562712349E-001  0.000000000000000E+000+0.348859478408316E-001 +0.889254633445792E-002  0.000000000000000E+000+0.372904969874290E-001 +0.132949678594278E-001  0.000000000000000E+000+0.398845499064174E-001 +0.897728704381017E-002  0.000000000000000E+000+0.422917602893396E-001 +0.133530215891990E-001  0.000000000000000E+000+0.448841050044180E-001 +0.904101635819934E-002  0.000000000000000E+000+0.472915329690292E-001 +0.134187777030845E-001  0.000000000000000E+000+0.448528380708523E-001 +0.175735435605107E-001  0.000000000000000E+000+0.498836917835918E-001 +0.911991320375936E-002  0.000000000000000E+000+0.522874069975051E-001 +0.135507216540452E-001  0.000000000000000E+000+0.548790812949033E-001 +0.921149949688830E-002  0.000000000000000E+000+0.572863231540567E-001 +0.136388959671376E-001  0.000000000000000E+000+0.598790589316415E-001 +0.918407375678816E-002  0.000000000000000E+000+0.623590312841999E-001 +0.136161871876397E-001  0.000000000000000E+000+0.648882846946340E-001 +0.929768835114423E-002  0.000000000000000E+000+0.673708037938968E-001 +0.137654412938815E-001  0.000000000000000E+000+0.698815075929149E-001 +0.944835648181582E-002  0.000000000000000E+000+0.723006618538128E-001 +0.138184730749027E-001  0.000000000000000E+000+0.699048578930071E-001 +0.178446291117357E-001  0.000000000000000E+000+0.748765735527623E-001 +0.937460219893974E-002  0.000000000000000E+000+0.773169545123332E-001 +0.138727132318244E-001  0.000000000000000E+000+0.798463307594286E-001 +0.960013646147148E-002  0.000000000000000E+000+0.823528893119287E-001 +0.139299421283865E-001  0.000000000000000E+000+0.847816044956594E-001 +0.970343309172691E-002  0.000000000000000E+000+0.872193013720580E-001 +0.140356141943716E-001  0.000000000000000E+000+0.894050078821107E-001 +0.926570675087459E-002  0.000000000000000E+000+0.824082332243445E-001 +0.499899823812024E-002  0.000000000000000E+000+0.674500068614159E-001 +0.480706579594959E-002  0.000000000000000E+000+0.102343281449715E-001 +0.864992134013922E-002  0.000000000000000E+000+0.125217794319013E-001 +0.216274619718725E-001  0.000000000000000E+000+0.530727028577484E-002 +0.174243678533301E-001  0.000000000000000E+000+0.927072212021592E-001 +0.216524795078309E-001  0.000000000000000E+000+0.825446721529249E-001 +0.217623324626207E-001  0.000000000000000E+000+0.248287209997012E-001 +0.173700977842713E-001  0.000000000000000E+000+0.774559974953847E-001 +0.467369623047021E-002  0.000000000000000E+000+0.524492410994514E-001 +0.457972145376216E-002  0.000000000000000E+000+0.424538688853401E-001 +0.449146107519883E-002  0.000000000000000E+000+0.624631306950981E-001 +0.456708086287553E-002  0.000000000000000E+000+0.324537891613090E-001 +0.442543162322896E-002  0.000000000000000E+000+0.224558290336793E-001 +0.435877134710853E-002  0.000000000000000E+000+0.323740723540678E-001 +0.216972078724282E-001  0.000000000000000E+000+0.573773859284986E-001 +0.217991888252024E-001  0.000000000000000E+000+0.198976948798363E-001 +0.173400626964691E-001  0.000000000000000E+000+0.962582298363988E-001 +0.110362954798282E-001  0.000000000000000E+000+0.224563524297887E-001 +0.217077368256298E-001  0.000000000000000E+000+0.921069635138181E-001 +0.135809272238655E-001  0.000000000000000E+000+0.923858042830145E-001 +0.440245293971425E-002  0.000000000000000E+000+0.474148725805479E-001 +0.218043592700527E-001  0.000000000000000E+000+0.297698604248976E-001 +0.173792298551515E-001  0.000000000000000E+000+0.734871392924924E-002 +0.128570511094810E-001  0.000000000000000E+000+0.363766117527133E-002 +0.655253480415738E-002  0.000000000000000E+000+0.347814593749260E-001 +0.174396077677385E-001  0.000000000000000E+000+0.964468684680814E-001 +0.193951920109048E-001  0.000000000000000E+000+0.398535820828240E-001 +0.175636784640132E-001  0.000000000000000E+000+0.424210384181232E-001 +0.217811660999173E-001  0.000000000
[...]
      <PointData>
        <DataArray type="Float64" NumberOfComponents="1" Name="T__TempConverged" format="ascii">
           +0.263150000000000E+003 +0.263150000000000E+003 +0.263150000000000E+003 +0.263150000000000E+003 +0.263150000000000E+003 +0.263150000000000E+003 +0.263150000000000E+003 +0.263150000000000E+003 +0.263150000000000E+003 +0.263150000000000E+003 +0.263150000000000E+003 +0.263150000000000E+003 +0.263150000000000E+003 +0.263150000000000E+003 +0.263150000000000E+003 +0.263150000000000E+003 +0.263150000000000E+003 +0.263150000000000E+003 +0.263150000000000E+003 +0.263150000000000E+003 +0.263150000000000E+003 +0.263150000000000E+003 +0.263150000000000E+003 +0.282153525843522E+003 +0.295667226968062E+003 +0.299493465298371E+003 +0.295723871958787E+003 +0.282180221658321E+003 +0.263150000000000E+003 +0.263150000000000E+003 +0.263150000000000E+003 +0.263150000000000E+003 +0.263150000000000E+003 +0.263150000000000E+003 +0.263150000000000E+003 +0.263150000000000E+003 +0.263150000000000E+003 +0.263150000000000E+003 +0.263150000000000E+003 +0.263150000000000E+003 +0.263150000000000E+003 +0.263150000000000E+003 +0.263150000000000E+003 +0.263150000000000E+003 +0.263150000000000E+003 +0.263150000000000E+003 +0.263150000000000E+003 +0.280352220693415E+003 +0.295078206091203E+003 +0.299303336533136E+003 +0.295681054820783E+003 +0.282164519251661E+003 +0.281692686805598E+003 +0.280595706357464E+003 +0.281408504917482E+003 +0.280527129356776E+003 +0.281200480431453E+003 +0.280970518518773E+003 +0.283062554306280E+003 +0.298504292328785E+003 +0.298297462662019E+003 +0.280967761760226E+003 +0.282624079550413E+003 +0.282187627021287E+003 +0.281519616281734E+003 +0.281184414497575E+003 +0.281111470065512E+003 +0.281190201666385E+003 +0.281545165491148E+003 +0.290506979681003E+003 +0.281848812985531E+003 +0.281125285712749E+003 +0.295221742473707E+003 +0.295320555960092E+003 +0.299467149296075E+003 +0.299448971797635E+003 +0.299409898945594E+003 +0.295425556515244E+003 +0.295221297213583E+003 +0.295421277715346E+003 +0.299437299846891E+003 +0.295549940782679E+003 +0.299432493345257E+003 +0.295663315377081E+003 +0.299429330940041E+003 +0.295797774493730E+003 +0.299417537111513E+003 +0.295892312497518E+003 +0.299395318446580E+003 +0.294880936179869E+003 +0.295998901768035E+003 +0.299360194012779E+003 +0.296134244222425E+003 +0.299346379803199E+003 +0.296057125701373E+003 +0.299339626969505E+003 +0.296208824874810E+003 +0.299316379964779E+003 +0.296421734197425E+003 +0.299291882724175E+003 +0.294349855021132E+003 +0.296274917128070E+003 +0.299252939804462E+003 +0.296625898296801E+003 +0.299199845313615E+003 +0.296824836986998E+003 +0.299157764401945E+003 +0.296296125307152E+003 +0.283237191594639E+003 +0.282654752220385E+003 +0.295421568406472E+003 +0.281298435446056E+003 +0.294618207366609E+003 +0.281557895740976E+003 +0.280907220562751E+003 +0.295243475055634E+003 +0.282176521015691E+003 +0.281960237533558E+003 +0.281698577763533E+003 +0.281877912381173E+003 +0.281493482421608E+003 +0.281285920987832E+003 +0.281124634703959E+003 +0.280812521489774E+003 +0.295292418991102E+003 +0.298634990219472E+003 +0.281079777025644E+003 +0.299353532825712E+003 +0.281679383463529E+003 +0.280774199821593E+003 +0.295221867632189E+003 +0.299434969875443E+003 +0.290320988697736E+003 +0.295108171215216E+003 +0.290548650776713E+003 +0.294873384665577E+003 +0.280857027284689E+003 +0.280445898659053E+003 +0.294881882265590E+003 +0.294814761577836E+003 +0.294546685308624E+003 +0.294441210637724E+003 +0.294634257058847E+003 +0.280479654466791E+003 +0.293916349057100E+003 +0.294257878339220E+003 +0.294025759471665E+003 +0.283314517300593E+003 +0.295729466028166E+003 +0.298671012492961E+003 +0.294924057271437E+003 +0.276713239858439E+003 +0.276681050484562E+003 +0.276674834494704E+003 +0.295186302003439E+003
        </DataArray>
        <DataArray type="Float64" NumberOfComponents="1" Name="R__Res" format="ascii">
            0.000000000000000E+000  0.000000000000000E+000  0.000000000000000E+000  0.000000000000000E+000  0.000000000000000E+000  0.000000000000000E+000  0.000000000000000E+000  0.000000000000000E+000  0.000000000000000E+000  0.000000000000000E+000  0.000000000000000E+000  0.000000000000000E+000  0.000000000000000E+000  0.000000000000000E+000  0.000000000000000E+000  0.000000000000000E+000  0.000000000000000E+000  0.000000000000000E+000  0.000000000000000E+000  0.000000000000000E+000  0.000000000000000E+000  0.000000000000000E+000  0.000000000000000E+000 -0.762350258620838E-001 +0.125734928024812E-008 +0.938338129419236E-009 +0.122342186381630E-008 -0.744361008800656E-001  0.000000000000000E+000  0.000000000000000E+000  0.000000000000000E+000  0.000000000000000E+000  0.000000000000000E+000  0.000000000000000E+000  0.000000000000000E+000  0.000000000000000E+000  0.000000000000000E+000  0.000000000000000E+000  0.000000000000000E+000  0.000000000000000E+000  0.000000000000000E+000  0.000000000000000E+000  0.000000000000000E+000  0.000000000000000E+000  0.000000000000000E+000  0.000000000000000E+000  0.000000000000000E+000 -0.655747036956997E-001 +0.173620406940245E-008 +0.848663334052091E-009 +0.123979571053923E-008 -0.749585572378634E-001 -0.339431132154438E+000 -0.351687618321035E+000 -0.341505290476979E+000 -0.354048709725129E+000 -0.342921904551525E+000 -0.347714971952240E+000 -0.314354918255698E+000 +0.196272520458507E-008 +0.184791215662727E-008 -0.345029011298907E+000 -0.326690916285498E+000 -0.332376882100924E+000 -0.341095579119637E+000 -0.344239124501959E+000 -0.343269927844675E+000 -0.338697690388466E+000 -0.310500908543992E+000 +0.670992861273589E-008 -0.320903029909697E+000 -0.344246579107510E+000 -0.396145849457241E-008 +0.101919432893283E-007 +0.593176430196962E-008 +0.274897504759508E-008 +0.579316716819989E-008 +0.331947802578725E-008 +0.140145299809546E-007 +0.191394988746652E-008 +0.132299697863658E-007 +0.367518437904835E-008 -0.145213596702831E-008 +0.336467698147658E-008 +0.353766804739308E-008 +0.558362356350983E-008 +0.365974728300245E-008 +0.124660837208523E-008 +0.503137509433316E-008 +0.227189249635273E-007 +0.798699129056502E-008 +0.756800733192620E-009 +0.165699298726452E-007 +0.138646798486519E-007 +0.664998656141336E-008 -0.318491899520268E-010 +0.336916050613922E-008 +0.422470169958444E-008 +0.574236636019521E-008 +0.154580626077205E-008 +0.399401134387745E-008 +0.262619237467732E-008 +0.882234008070526E-008 +0.164342850439425E-007 +0.568166635961376E-008 +0.845462211351844E-008 +0.872151573183544E-009 +0.303428437931075E-008 -0.314117385092430E+000 -0.325180172636690E+000 +0.239452835337772E-008 -0.337291838022889E+000 +0.866727134507528E-009 -0.325290353606019E+000 -0.342897659310760E+000 +0.730373383994731E-008 -0.333541807296299E+000 -0.335100092941473E+000 -0.338830618858059E+000 -0.337518484878487E+000 -0.340952865226610E+000 -0.343092711873162E+000 -0.344580638768086E+000 -0.347904189069948E+000 -0.637583386087215E-008 +0.203019123734549E-008 -0.343781493600083E+000 +0.120496133071413E-007 -0.331420919561362E+000 -0.349150682382756E+000 +0.143097480531651E-007 +0.268134714986878E-007 -0.254691068235502E-008 +0.699694080452673E-009 -0.217741265018390E-007 +0.802725486082068E-008 -0.348354810840197E+000 -0.354733721039032E+000 +0.201071934657904E-007 -0.119798548858796E-008 -0.116448095610622E-008 +0.925449739064277E-008 +0.474614547663066E-008 -0.351945678101232E+000 -0.138505198421512E-007 +0.199401775091701E-007 -0.130208877013871E-007 -0.275880933048729E+000 -0.607630945559379E-009 +0.150042511748438E-008 +0.202676653238143E-008 -0.494874102999229E+000 -0.487100596040976E+000 -0.488141576470153E+000 -0.115071119299870E-008
        </DataArray>
      </PointData>
    </Piece>
  </UnstructuredGrid>
</VTKFile>
