<?xml version="1.0"?>
<VTKFile type="UnstructuredGrid" version="1.0" byte_order="LittleEndian">
  <UnstructuredGrid>
    <Piece NumberOfPoints="+155" NumberOfCells="+256">
      <Points>
        <DataArray type="Float64" NumberOfComponents="3" Name="Points" format="ascii">
           0.000000000000000E+000  0.000000000000000E+000  0.000000000000000E+000+0.100000000000000E+000  0.000000000000000E+000  0.000000000000000E+000+0.100000000000000E+000 +0.260000000000000E-001  0.000000000000000E+000 0.000000000000000E+000 +0.260000000000000E-001  0.000000000000000E+000+0.499999999999030E-002  0.000000000000000E+000  0.000000000000000E+000+0.999999999998248E-002  0.000000000000000E+000  0.000000000000000E+000+0.149999999999717E-001  0.000000000000000E+000  0.000000000000000E+000+0.199999999999560E-001  0.000000000000000E+000  0.000000000000000E+000+0.249999999999416E-001  0.000000000000000E+000  0.000000000000000E+000+0.299999999999273E-001  0.000000000000000E+000  0.000000000000000E+000+0.349999999999129E-001  0.000000000000000E+000  0.000000000000000E+000+0.399999999998958E-001  0.000000000000000E+000  0.000000000000000E+000+0.449999999998815E-001  0.000000000000000E+000  0.000000000000000E+000+0.499999999998685E-001  0.000000000000000E+000  0.000000000000000E+000+0.549999999998802E-001  0.000000000000000E+000  0.000000000000000E+000+0.599999999998943E-001  0.000000000000000E+000  0.000000000000000E+000+0.649999999999086E-001  0.000000000000000E+000  0.000000000000000E+000+0.699999999999197E-001  0.000000000000000E+000  0.000000000000000E+000+0.749999999999336E-001  0.000000000000000E+000  0.000000000000000E+000+0.799999999999474E-001  0.000000000000000E+000  0.000000000000000E+000+0.849999999999585E-001  0.000000000000000E+000  0.000000000000000E+000+0.899999999999729E-001  0.000000000000000E+000  0.000000000000000E+000+0.949999999999878E-001  0.000000000000000E+000  0.000000000000000E+000+0.100000000000000E+000 +0.433333333332438E-002  0.000000000000000E+000+0.100000000000000E+000 +0.866666666664460E-002  0.000000000000000E+000+0.100000000000000E+000 +0.129999999999662E-001  0.000000000000000E+000+0.100000000000000E+000 +0.173333333333106E-001  0.000000000000000E+000+0.100000000000000E+000 +0.216666666666560E-001  0.000000000000000E+000+0.950000000000138E-001 +0.260000000000000E-001  0.000000000000000E+000+0.900000000000276E-001 +0.260000000000000E-001  0.000000000000000E+000+0.850000000000415E-001 +0.260000000000000E-001  0.000000000000000E+000+0.800000000000553E-001 +0.260000000000000E-001  0.000000000000000E+000+0.750000000000691E-001 +0.260000000000000E-001  0.000000000000000E+000+0.700000000000829E-001 +0.260000000000000E-001  0.000000000000000E+000+0.650000000000968E-001 +0.260000000000000E-001  0.000000000000000E+000+0.600000000001106E-001 +0.260000000000000E-001  0.000000000000000E+000+0.550000000001244E-001 +0.260000000000000E-001  0.000000000000000E+000+0.500000000001369E-001 +0.260000000000000E-001  0.000000000000000E+000+0.450000000001247E-001 +0.260000000000000E-001  0.000000000000000E+000+0.400000000001100E-001 +0.260000000000000E-001  0.000000000000000E+000+0.350000000000951E-001 +0.260000000000000E-001  0.000000000000000E+000+0.300000000000835E-001 +0.260000000000000E-001  0.000000000000000E+000+0.250000000000691E-001 +0.260000000000000E-001  0.000000000000000E+000+0.200000000000548E-001 +0.260000000000000E-001  0.000000000000000E+000+0.150000000000431E-001 +0.260000000000000E-001  0.000000000000000E+000+0.100000000000282E-001 +0.260000000000000E-001  0.000000000000000E+000+0.500000000001274E-002 +0.260000000000000E-001  0.000000000000000E+000 0.000000000000000E+000 +0.216666666666761E-001  0.000000000000000E+000 0.000000000000000E+000 +0.173333333333561E-001  0.000000000000000E+000 0.000000000000000E+000 +0.130000000000335E-001  0.000000000000000E+000 0.000000000000000E+000 +0.866666666668923E-002  0.000000000000000E+000 0.000000000000000E+000 +0.433333333334393E-002  0.000000000000000E+000+0.474770501596061E-001 +0.449457555865549E-002  0.000000000000000E+000+0.624137095822587E-001 +0.218639104185592E-001  0.000000000000000E+000+0.274710820211137E-001 +0.439781066491993E-002  0.000000000000000E+000+0.775162404499768E-001 +0.218822875726493E-001  0.000000000000000E+000+0.175000000000489E-001 +0.216698729810677E-001  0.000000000000000E+000+0.374049377742800E-001 +0.217454153049271E-001  0.000000000000000E+000+0.873299162642599E-001 +0.493503711796043E-002  0.000000000000000E+000+0.962472232502677E-001 +0.151666666666384E-001  0.000000000000000E+000+0.361092965627013E-002 +0.107352657633569E-001  0.000000000000000E+000+0.524222487305538E-001 +0.217494710322139E-001  0.000000000000000E+000+0.724471979965309E-001 +0.480286472974082E-002  0.000000000000000E+000+0.574556233588582E-001 +0.465234046326982E-002  0.000000000000000E+000+0.374775082418216E-001 +0.443588749052796E-002  0.000000000000000E+000+0.174620748440649E-001 +0.432604372433973E-002  0.000000000000000E+000+0.274069445303662E-001 +0.216995189535168E-001  0.000000000000000E+000+0.875000000000345E-001 +0.216698729810898E-001  0.000000000000000E+000+0.768509429014877E-002 +0.215379337211246E-001  0.000000000000000E+000+0.963904321494850E-001 +0.661398939465712E-002  0.000000000000000E+000+0.727642177052906E-002 +0.443011470774208E-002  0.000000000000000E+000+0.124449834836647E-001 +0.431291926454894E-002  0.000000000000000E+000+0.149241258378327E-001 +0.860791945987163E-002  0.000000000000000E+000+0.199074884808963E-001 +0.868183890874860E-002  0.000000000000000E+000+0.173445817427756E-001 +0.129363585197896E-001  0.000000000000000E+000+0.223149927841523E-001 +0.130318645013867E-001  0.000000000000000E+000+0.124626594021863E-001 +0.128806353569139E-001  0.000000000000000E+000+0.148978737522776E-001 +0.172549170089808E-001  0.000000000000000E+000+0.100477085488613E-001 +0.173020481200621E-001  0.000000000000000E+000+0.248943288561033E-001 +0.874693478464290E-002  0.000000000000000E+000+0.273027333778438E-001 +0.131023208673426E-001  0.000000000000000E+000+0.298881968642471E-001 +0.882634524946797E-002  0.000000000000000E+000+0.322939746294813E-001 +0.132008562712349E-001  0.000000000000000E+000+0.348859478408316E-001 +0.889254633445792E-002  0.000000000000000E+000+0.372904969874290E-001 +0.132949678594278E-001  0.000000000000000E+000+0.398845499064174E-001 +0.897728704381017E-002  0.000000000000000E+000+0.422917602893396E-001 +0.133530215891990E-001  0.000000000000000E+000+0.448841050044180E-001 +0.904101635819934E-002  0.000000000000000E+000+0.472915329690292E-001 +0.134187777030845E-001  0.000000000000000E+000+0.448528380708523E-001 +0.175735435605107E-001  0.000000000000000E+000+0.498836917835918E-001 +0.911991320375936E-002  0.000000000000000E+000+0.522874069975051E-001 +0.135507216540452E-001  0.000000000000000E+000+0.548790812949033E-001 +0.921149949688830E-002  0.000000000000000E+000+0.572863231540567E-001 +0.136388959671376E-001  0.000000000000000E+000+0.598790589316415E-001 +0.918407375678816E-002  0.000000000000000E+000+0.623590312841999E-001 +0.136161871876397E-001  0.000000000000000E+000+0.648882846946340E-001 +0.929768835114423E-002  0.000000000000000E+000+0.673708037938968E-001 +0.137654412938815E-001  0.000000000000000E+000+0.698815075929149E-001 +0.944835648181582E-002  0.000000000000000E+000+0.723006618538128E-001 +0.138184730749027E-001  0.000000000000000E+000+0.699048578930071E-001 +0.178446291117357E-001  0.000000000000000E+000+0.748765735527623E-001 +0.937460219893974E-002  0.000000000000000E+000+0.773169545123332E-001 +0.138727132318244E-001  0.000000000000000E+000+0.798463307594286E-001 +0.960013646147148E-002  0.000000000000000E+000+0.823528893119287E-001 +0.139299421283865E-001  0.000000000000000E+000+0.847816044956594E-001 +0.970343309172691E-002  0.000000000000000E+000+0.872193013720580E-001 +0.140356141943716E-001  0.000000000000000E+000+0.894050078821107E-001 +0.926570675087459E-002  0.000000000000000E+000+0.824082332243445E-001 +0.499899823812024E-002  0.000000000000000E+000+0.674500068614159E-001 +0.480706579594959E-002  0.000000000000000E+000+0.102343281449715E-001 +0.864992134013922E-002  0.000000000000000E+000+0.125217794319013E-001 +0.216274619718725E-001  0.000000000000000E+000+0.530727028577484E-002 +0.174243678533301E-001  0.000000000000000E+000+0.927072212021592E-001 +0.216524795078309E-001  0.000000000000000E+000+0.825446721529249E-001 +0.217623324626207E-001  0.000000000000000E+000+0.248287209997012E-001 +0.173700977842713E-001  0.000000000000000E+000+0.774559974953847E-001 +0.467369623047021E-002  0.000000000000000E+000+0.524492410994514E-001 +0.457972145376216E-002  0.000000000000000E+000+0.424538688853401E-001 +0.449146107519883E-002  0.000000000000000E+000+0.624631306950981E-001 +0.456708086287553E-002  0.000000000000000E+000+0.324537891613090E-001 +0.442543162322896E-002  0.000000000000000E+000+0.224558290336793E-001 +0.435877134710853E-002  0.000000000000000E+000+0.323740723540678E-001 +0.216972078724282E-001  0.000000000000000E+000+0.573773859284986E-001 +0.217991888252024E-001  0.000000000000000E+000+0.198976948798363E-001 +0.173400626964691E-001  0.000000000000000E+000+0.962582298363988E-001 +0.110362954798282E-001  0.000000000000000E+000+0.224563524297887E-001 +0.217077368256298E-001  0.000000000000000E+000+0.921069635138181E-001 +0.135809272238655E-001  0.000000000000000E+000+0.923858042830145E-001 +0.440245293971425E-002  0.000000000000000E+000+0.474148725805479E-001 +0.218043592700527E-001  0.000000000000000E+000+0.297698604248976E-001 +0.173792298551515E-001  0.000000000000000E+000+0.734871392924924E-002 +0.128570511094810E-001  0.000000000000000E+000+0.363766117527133E-002 +0.655253480415738E-002  0.000000000000000E+000+0.347814593749260E-001 +0.174396077677385E-001  0.000000000000000E+000+0.964468684680814E-001 +0.193951920109048E-001  0.000000000000000E+000+0.398535820828240E-001 +0.175636784640132E-001  0.000000000000000E+000+0.424210384181232E-001 +0.217811660999173E-001  0.000000000
[...]
      <PointData>
        <DataArray type="Float64" NumberOfComponents="1" Name="T__TempConverged" format="ascii">
           +0.263150000000000E+003 +0.263150000000000E+003 +0.263150000000000E+003 +0.263150000000000E+003 +0.263150000000000E+003 +0.263150000000000E+003 +0.263150000000000E+003 +0.263150000000000E+003 +0.263150000000000E+003 +0.263150000000000E+003 +0.263150000000000E+003 +0.263150000000000E+003 +0.263150000000000E+003 +0.263150000000000E+003 +0.263150000000000E+003 +0.263150000000000E+003 +0.263150000000000E+003 +0.263150000000000E+003 +0.263150000000000E+003 +0.263150000000000E+003 +0.263150000000000E+003 +0.263150000000000E+003 +0.263150000000000E+003 +0.279424538052908E+003 +0.291767911585378E+003 +0.296209865796788E+003 +0.291847605494202E+003 +0.279449305044067E+003 +0.263150000000000E+003 +0.263150000000000E+003 +0.263150000000000E+003 +0.263150000000000E+003 +0.263150000000000E+003 +0.263150000000000E+003 +0.263150000000000E+003 +0.263150000000000E+003 +0.263150000000000E+003 +0.263150000000000E+003 +0.263150000000000E+003 +0.263150000000000E+003 +0.263150000000000E+003 +0.263150000000000E+003 +0.263150000000000E+003 +0.263150000000000E+003 +0.263150000000000E+003 +0.263150000000000E+003 +0.263150000000000E+003 +0.277884770613517E+003 +0.291173630378991E+003 +0.295922291280635E+003 +0.291730902007860E+003 +0.279429605223787E+003 +0.278840691095605E+003 +0.277918163916020E+003 +0.278606489123647E+003 +0.277860258035936E+003 +0.278429145338556E+003 +0.278235322734798E+003 +0.280038074271040E+003 +0.295006448496509E+003 +0.294694491416835E+003 +0.278238548244443E+003 +0.279641655114618E+003 +0.279270880306801E+003 +0.278696529951815E+003 +0.278417646705193E+003 +0.278355306426280E+003 +0.278442846037162E+003 +0.278729314563303E+003 +0.286551767918494E+003 +0.279041462666377E+003 +0.278371897899961E+003 +0.291328407490875E+003 +0.291431458366734E+003 +0.296007200498538E+003 +0.295993009724157E+003 +0.295965494721678E+003 +0.291525552787170E+003 +0.291359767147579E+003 +0.291535345417861E+003 +0.295980044351086E+003 +0.291669145412265E+003 +0.295973543486600E+003 +0.291786652372677E+003 +0.295968055337264E+003 +0.291928341358994E+003 +0.295950747812974E+003 +0.292026872246065E+003 +0.295922435417655E+003 +0.290968048943567E+003 +0.292139994864482E+003 +0.295883647509532E+003 +0.292278130915692E+003 +0.295865361058540E+003 +0.292208962314795E+003 +0.295853751238197E+003 +0.292371095691579E+003 +0.295823836665495E+003 +0.292589904723720E+003 +0.295789839177468E+003 +0.290418698011883E+003 +0.292451044081336E+003 +0.295745330861551E+003 +0.292817519115348E+003 +0.295698118995456E+003 +0.293014215639909E+003 +0.295687851822981E+003 +0.292483336451697E+003 +0.280177260330323E+003 +0.279672453376388E+003 +0.291542232928909E+003 +0.278519691970552E+003 +0.290795514164554E+003 +0.278794757833041E+003 +0.278194506522889E+003 +0.291348894144514E+003 +0.279241709594592E+003 +0.279071438179127E+003 +0.278850930629569E+003 +0.278991491588996E+003 +0.278677793507695E+003 +0.278503142334921E+003 +0.278367832247820E+003 +0.278102841582725E+003 +0.291395900312186E+003 +0.295147169982596E+003 +0.278326513564635E+003 +0.296010671176632E+003 +0.278865859186260E+003 +0.278068030712315E+003 +0.291326244240096E+003 +0.296074784703587E+003 +0.286367526456528E+003 +0.291207475655077E+003 +0.286613023914879E+003 +0.290967095612600E+003 +0.278139999366957E+003 +0.277787938974748E+003 +0.290971416923984E+003 +0.290908920891674E+003 +0.290627458914272E+003 +0.290512029250620E+003 +0.290754424732444E+003 +0.277814883270298E+003 +0.290009029469535E+003 +0.290315258969673E+003 +0.290093489653574E+003 +0.280241785715240E+003 +0.291947255709694E+003 +0.295211562601274E+003 +0.291104314119729E+003 +0.274147920743392E+003 +0.274105059596200E+003 +0.274101195510055E+003 +0.291334110725093E+003
        </DataArray>
        <DataArray type="Float64" NumberOfComponents="1" Name="R__Res" format="ascii">
            0.000000000000000E+000  0.000000000000000E+000  0.000000000000000E+000  0.000000000000000E+000  0.000000000000000E+000  0.000000000000000E+000  0.000000000000000E+000  0.000000000000000E+000  0.000000000000000E+000  0.000000000000000E+000  0.000000000000000E+000  0.000000000000000E+000  0.000000000000000E+000  0.000000000000000E+000  0.000000000000000E+000  0.000000000000000E+000  0.000000000000000E+000  0.000000000000000E+000  0.000000000000000E+000  0.000000000000000E+000  0.000000000000000E+000  0.000000000000000E+000  0.000000000000000E+000 -0.557884605319386E-001 +0.128487781525521E-008 +0.135321798211407E-008 +0.125606863798922E-008 -0.550562490874987E-001  0.000000000000000E+000  0.000000000000000E+000  0.000000000000000E+000  0.000000000000000E+000  0.000000000000000E+000  0.000000000000000E+000  0.000000000000000E+000  0.000000000000000E+000  0.000000000000000E+000  0.000000000000000E+000  0.000000000000000E+000  0.000000000000000E+000  0.000000000000000E+000  0.000000000000000E+000  0.000000000000000E+000  0.000000000000000E+000  0.000000000000000E+000  0.000000000000000E+000  0.000000000000000E+000 -0.404554168461719E-001 +0.169515046444246E-008 +0.118964693651691E-008 +0.125575977394377E-008 -0.556513356272997E-001 -0.189903099826934E+000 -0.235839544261658E+000 -0.191121041510632E+000 -0.239142789739009E+000 -0.191857731957780E+000 -0.194344756244974E+000 -0.177625839840964E+000 +0.254624021867045E-008 +0.233262642534982E-008 -0.193169228628307E+000 -0.184220204350181E+000 -0.186943239335340E+000 -0.190755533940372E+000 -0.192431186527189E+000 -0.191971404672775E+000 -0.190041191836589E+000 -0.176400329151629E+000 +0.744097805593924E-008 -0.207183573676716E+000 -0.191803562860056E+000 -0.410123712768495E-008 +0.821793766370149E-008 +0.548077006001790E-008 +0.370349317879715E-008 +0.538285149787043E-008 +0.338338068672783E-008 +0.105888822155009E-007 +0.499949415200263E-009 +0.593885562949481E-008 +0.319504334100884E-008 +0.113615128416455E-008 +0.348627593460549E-008 +0.632762731100911E-008 -0.926527299327518E-009 +0.627832819066754E-008 +0.242851250220610E-008 +0.576410330577204E-008 +0.152943915310289E-007 +0.522391685464640E-008 +0.439499259208276E-008 +0.734038940741755E-008 +0.927421506258241E-008 +0.350402928894766E-008 +0.319351667332768E-008 +0.359574570119037E-008 +0.338578320935312E-008 +0.605557337607365E-008 +0.549493905932508E-008 +0.928408172562456E-008 +0.975497238542289E-009 +0.722636928074394E-008 +0.818454259920998E-008 +0.147764622759894E-008 +0.801413657658401E-008 +0.250307752303058E-008 +0.324643489868492E-008 -0.178251154592951E+000 -0.183594629192993E+000 +0.673872069256731E-009 -0.189423833210935E+000 +0.163159707966543E-008 -0.209780296796882E+000 -0.192944713241999E+000 +0.263713539894184E-008 -0.186740647163992E+000 -0.187927781947892E+000 -0.189774903164010E+000 -0.188780009081089E+000 -0.190841226100908E+000 -0.191912312009428E+000 -0.192748984659054E+000 -0.228347141776929E+000 +0.534852073741376E-007 +0.265257038556399E-008 -0.192187273222892E+000 +0.111223301679786E-007 -0.209891725498788E+000 -0.229789022287370E+000 +0.411738287908747E-008 +0.229649166350043E-008 -0.242201747546744E-008 +0.290521384727072E-009 -0.113249267741367E-007 +0.146693759361938E-007 -0.204341366393930E+000 -0.241244841307837E+000 +0.161345190541340E-007 -0.108791908814965E-008 -0.288719537167026E-008 +0.859106030759449E-008 -0.415174428169962E-008 -0.238909750711586E+000 -0.125791497218586E-007 +0.237795685364972E-007 -0.116740537237092E-007 -0.153825061434049E+000 -0.179248771381424E-008 +0.416683321180500E-008 -0.583078119120728E-008 -0.324940426408823E+000 -0.317360126609372E+000 -0.318675027062264E+000 +0.774904973521728E-009
        </DataArray>
      </PointData>
    </Piece>
  </UnstructuredGrid>
</VTKFile>
