<?xml version="1.0"?>
<VTKFile type="UnstructuredGrid" version="1.0" byte_order="LittleEndian">
  <UnstructuredGrid>
    <Piece NumberOfPoints="+155" NumberOfCells="+256">
      <Points>
        <DataArray type="Float64" NumberOfComponents="3" Name="Points" format="ascii">
           0.000000000000000E+000  0.000000000000000E+000  0.000000000000000E+000+0.100000000000000E+000  0.000000000000000E+000  0.000000000000000E+000+0.100000000000000E+000 +0.260000000000000E-001  0.000000000000000E+000 0.000000000000000E+000 +0.260000000000000E-001  0.000000000000000E+000+0.499999999999030E-002  0.000000000000000E+000  0.000000000000000E+000+0.999999999998248E-002  0.000000000000000E+000  0.000000000000000E+000+0.149999999999717E-001  0.000000000000000E+000  0.000000000000000E+000+0.199999999999560E-001  0.000000000000000E+000  0.000000000000000E+000+0.249999999999416E-001  0.000000000000000E+000  0.000000000000000E+000+0.299999999999273E-001  0.000000000000000E+000  0.000000000000000E+000+0.349999999999129E-001  0.000000000000000E+000  0.000000000000000E+000+0.399999999998958E-001  0.000000000000000E+000  0.000000000000000E+000+0.449999999998815E-001  0.000000000000000E+000  0.000000000000000E+000+0.499999999998685E-001  0.000000000000000E+000  0.000000000000000E+000+0.549999999998802E-001  0.000000000000000E+000  0.000000000000000E+000+0.599999999998943E-001  0.000000000000000E+000  0.000000000000000E+000+0.649999999999086E-001  0.000000000000000E+000  0.000000000000000E+000+0.699999999999197E-001  0.000000000000000E+000  0.000000000000000E+000+0.749999999999336E-001  0.000000000000000E+000  0.000000000000000E+000+0.799999999999474E-001  0.000000000000000E+000  0.000000000000000E+000+0.849999999999585E-001  0.000000000000000E+000  0.000000000000000E+000+0.899999999999729E-001  0.000000000000000E+000  0.000000000000000E+000+0.949999999999878E-001  0.000000000000000E+000  0.000000000000000E+000+0.100000000000000E+000 +0.433333333332438E-002  0.000000000000000E+000+0.100000000000000E+000 +0.866666666664460E-002  0.000000000000000E+000+0.100000000000000E+000 +0.129999999999662E-001  0.000000000000000E+000+0.100000000000000E+000 +0.173333333333106E-001  0.000000000000000E+000+0.100000000000000E+000 +0.216666666666560E-001  0.000000000000000E+000+0.950000000000138E-001 +0.260000000000000E-001  0.000000000000000E+000+0.900000000000276E-001 +0.260000000000000E-001  0.000000000000000E+000+0.850000000000415E-001 +0.260000000000000E-001  0.000000000000000E+000+0.800000000000553E-001 +0.260000000000000E-001  0.000000000000000E+000+0.750000000000691E-001 +0.260000000000000E-001  0.000000000000000E+000+0.700000000000829E-001 +0.260000000000000E-001  0.000000000000000E+000+0.650000000000968E-001 +0.260000000000000E-001  0.000000000000000E+000+0.600000000001106E-001 +0.260000000000000E-001  0.000000000000000E+000+0.550000000001244E-001 +0.260000000000000E-001  0.000000000000000E+000+0.500000000001369E-001 +0.260000000000000E-001  0.000000000000000E+000+0.450000000001247E-001 +0.260000000000000E-001  0.000000000000000E+000+0.400000000001100E-001 +0.260000000000000E-001  0.000000000000000E+000+0.350000000000951E-001 +0.260000000000000E-001  0.000000000000000E+000+0.300000000000835E-001 +0.260000000000000E-001  0.000000000000000E+000+0.250000000000691E-001 +0.260000000000000E-001  0.000000000000000E+000+0.200000000000548E-001 +0.260000000000000E-001  0.000000000000000E+000+0.150000000000431E-001 +0.260000000000000E-001  0.000000000000000E+000+0.100000000000282E-001 +0.260000000000000E-001  0.000000000000000E+000+0.500000000001274E-002 +0.260000000000000E-001  0.000000000000000E+000 0.000000000000000E+000 +0.216666666666761E-001  0.000000000000000E+000 0.000000000000000E+000 +0.173333333333561E-001  0.000000000000000E+000 0.000000000000000E+000 +0.130000000000335E-001  0.000000000000000E+000 0.000000000000000E+000 +0.866666666668923E-002  0.000000000000000E+000 0.000000000000000E+000 +0.433333333334393E-002  0.000000000000000E+000+0.474770501596061E-001 +0.449457555865549E-002  0.000000000000000E+000+0.624137095822587E-001 +0.218639104185592E-001  0.000000000000000E+000+0.274710820211137E-001 +0.439781066491993E-002  0.000000000000000E+000+0.775162404499768E-001 +0.218822875726493E-001  0.000000000000000E+000+0.175000000000489E-001 +0.216698729810677E-001  0.000000000000000E+000+0.374049377742800E-001 +0.217454153049271E-001  0.000000000000000E+000+0.873299162642599E-001 +0.493503711796043E-002  0.000000000000000E+000+0.962472232502677E-001 +0.151666666666384E-001  0.000000000000000E+000+0.361092965627013E-002 +0.107352657633569E-001  0.000000000000000E+000+0.524222487305538E-001 +0.217494710322139E-001  0.000000000000000E+000+0.724471979965309E-001 +0.480286472974082E-002  0.000000000000000E+000+0.574556233588582E-001 +0.465234046326982E-002  0.000000000000000E+000+0.374775082418216E-001 +0.443588749052796E-002  0.000000000000000E+000+0.174620748440649E-001 +0.432604372433973E-002  0.000000000000000E+000+0.274069445303662E-001 +0.216995189535168E-001  0.000000000000000E+000+0.875000000000345E-001 +0.216698729810898E-001  0.000000000000000E+000+0.768509429014877E-002 +0.215379337211246E-001  0.000000000000000E+000+0.963904321494850E-001 +0.661398939465712E-002  0.000000000000000E+000+0.727642177052906E-002 +0.443011470774208E-002  0.000000000000000E+000+0.124449834836647E-001 +0.431291926454894E-002  0.000000000000000E+000+0.149241258378327E-001 +0.860791945987163E-002  0.000000000000000E+000+0.199074884808963E-001 +0.868183890874860E-002  0.000000000000000E+000+0.173445817427756E-001 +0.129363585197896E-001  0.000000000000000E+000+0.223149927841523E-001 +0.130318645013867E-001  0.000000000000000E+000+0.124626594021863E-001 +0.128806353569139E-001  0.000000000000000E+000+0.148978737522776E-001 +0.172549170089808E-001  0.000000000000000E+000+0.100477085488613E-001 +0.173020481200621E-001  0.000000000000000E+000+0.248943288561033E-001 +0.874693478464290E-002  0.000000000000000E+000+0.273027333778438E-001 +0.131023208673426E-001  0.000000000000000E+000+0.298881968642471E-001 +0.882634524946797E-002  0.000000000000000E+000+0.322939746294813E-001 +0.132008562712349E-001  0.000000000000000E+000+0.348859478408316E-001 +0.889254633445792E-002  0.000000000000000E+000+0.372904969874290E-001 +0.132949678594278E-001  0.000000000000000E+000+0.398845499064174E-001 +0.897728704381017E-002  0.000000000000000E+000+0.422917602893396E-001 +0.133530215891990E-001  0.000000000000000E+000+0.448841050044180E-001 +0.904101635819934E-002  0.000000000000000E+000+0.472915329690292E-001 +0.134187777030845E-001  0.000000000000000E+000+0.448528380708523E-001 +0.175735435605107E-001  0.000000000000000E+000+0.498836917835918E-001 +0.911991320375936E-002  0.000000000000000E+000+0.522874069975051E-001 +0.135507216540452E-001  0.000000000000000E+000+0.548790812949033E-001 +0.921149949688830E-002  0.000000000000000E+000+0.572863231540567E-001 +0.136388959671376E-001  0.000000000000000E+000+0.598790589316415E-001 +0.918407375678816E-002  0.000000000000000E+000+0.623590312841999E-001 +0.136161871876397E-001  0.000000000000000E+000+0.648882846946340E-001 +0.929768835114423E-002  0.000000000000000E+000+0.673708037938968E-001 +0.137654412938815E-001  0.000000000000000E+000+0.698815075929149E-001 +0.944835648181582E-002  0.000000000000000E+000+0.723006618538128E-001 +0.138184730749027E-001  0.000000000000000E+000+0.699048578930071E-001 +0.178446291117357E-001  0.000000000000000E+000+0.748765735527623E-001 +0.937460219893974E-002  0.000000000000000E+000+0.773169545123332E-001 +0.138727132318244E-001  0.000000000000000E+000+0.798463307594286E-001 +0.960013646147148E-002  0.000000000000000E+000+0.823528893119287E-001 +0.139299421283865E-001  0.000000000000000E+000+0.847816044956594E-001 +0.970343309172691E-002  0.000000000000000E+000+0.872193013720580E-001 +0.140356141943716E-001  0.000000000000000E+000+0.894050078821107E-001 +0.926570675087459E-002  0.000000000000000E+000+0.824082332243445E-001 +0.499899823812024E-002  0.000000000000000E+000+0.674500068614159E-001 +0.480706579594959E-002  0.000000000000000E+000+0.102343281449715E-001 +0.864992134013922E-002  0.000000000000000E+000+0.125217794319013E-001 +0.216274619718725E-001  0.000000000000000E+000+0.530727028577484E-002 +0.174243678533301E-001  0.000000000000000E+000+0.927072212021592E-001 +0.216524795078309E-001  0.000000000000000E+000+0.825446721529249E-001 +0.217623324626207E-001  0.000000000000000E+000+0.248287209997012E-001 +0.173700977842713E-001  0.000000000000000E+000+0.774559974953847E-001 +0.467369623047021E-002  0.000000000000000E+000+0.524492410994514E-001 +0.457972145376216E-002  0.000000000000000E+000+0.424538688853401E-001 +0.449146107519883E-002  0.000000000000000E+000+0.624631306950981E-001 +0.456708086287553E-002  0.000000000000000E+000+0.324537891613090E-001 +0.442543162322896E-002  0.000000000000000E+000+0.224558290336793E-001 +0.435877134710853E-002  0.000000000000000E+000+0.323740723540678E-001 +0.216972078724282E-001  0.000000000000000E+000+0.573773859284986E-001 +0.217991888252024E-001  0.000000000000000E+000+0.198976948798363E-001 +0.173400626964691E-001  0.000000000000000E+000+0.962582298363988E-001 +0.110362954798282E-001  0.000000000000000E+000+0.224563524297887E-001 +0.217077368256298E-001  0.000000000000000E+000+0.921069635138181E-001 +0.135809272238655E-001  0.000000000000000E+000+0.923858042830145E-001 +0.440245293971425E-002  0.000000000000000E+000+0.474148725805479E-001 +0.218043592700527E-001  0.000000000000000E+000+0.297698604248976E-001 +0.173792298551515E-001  0.000000000000000E+000+0.734871392924924E-002 +0.128570511094810E-001  0.000000000000000E+000+0.363766117527133E-002 +0.655253480415738E-002  0.000000000000000E+000+0.347814593749260E-001 +0.174396077677385E-001  0.000000000000000E+000+0.964468684680814E-001 +0.193951920109048E-001  0.000000000000000E+000+0.398535820828240E-001 +0.175636784640132E-001  0.000000000000000E+000+0.424210384181232E-001 +0.217811660999173E-001  0.000000000
[...]
      <PointData>
        <DataArray type="Float64" NumberOfComponents="1" Name="T__TempConverged" format="ascii">
           +0.263150000000000E+003 +0.263150000000000E+003 +0.263150000000000E+003 +0.263150000000000E+003 +0.263150000000000E+003 +0.263150000000000E+003 +0.263150000000000E+003 +0.263150000000000E+003 +0.263150000000000E+003 +0.263150000000000E+003 +0.263150000000000E+003 +0.263150000000000E+003 +0.263150000000000E+003 +0.263150000000000E+003 +0.263150000000000E+003 +0.263150000000000E+003 +0.263150000000000E+003 +0.263150000000000E+003 +0.263150000000000E+003 +0.263150000000000E+003 +0.263150000000000E+003 +0.263150000000000E+003 +0.263150000000000E+003 +0.270539210744088E+003 +0.280584084642463E+003 +0.284238154482652E+003 +0.280654784010233E+003 +0.270986548402857E+003 +0.263150000000000E+003 +0.263150000000000E+003 +0.263150000000000E+003 +0.263150000000000E+003 +0.263150000000000E+003 +0.263150000000000E+003 +0.263150000000000E+003 +0.263150000000000E+003 +0.263150000000000E+003 +0.263150000000000E+003 +0.263150000000000E+003 +0.263150000000000E+003 +0.263150000000000E+003 +0.263150000000000E+003 +0.263150000000000E+003 +0.263150000000000E+003 +0.263150000000000E+003 +0.263150000000000E+003 +0.263150000000000E+003 +0.274220268558952E+003 +0.281820020395550E+003 +0.284422127625009E+003 +0.280581687848424E+003 +0.270976812810367E+003 +0.274297357468856E+003 +0.273464121474089E+003 +0.274091090884683E+003 +0.273417871304437E+003 +0.273927027353723E+003 +0.273755880634063E+003 +0.275335088912113E+003 +0.283370100259596E+003 +0.283217668179036E+003 +0.273751098154378E+003 +0.274982928683990E+003 +0.274672152539349E+003 +0.274171186418991E+003 +0.273925793896398E+003 +0.273858851777581E+003 +0.274004880330422E+003 +0.274143287311750E+003 +0.276434755488168E+003 +0.273583025980355E+003 +0.273937546571082E+003 +0.281744340140560E+003 +0.281824646198222E+003 +0.284781931890720E+003 +0.284764765906029E+003 +0.284742382551035E+003 +0.281890651616315E+003 +0.281811867769112E+003 +0.281895334205740E+003 +0.284755276419010E+003 +0.281987359692805E+003 +0.284750428535017E+003 +0.282065247933660E+003 +0.284742924226262E+003 +0.282160363635073E+003 +0.284726017347413E+003 +0.282226425243166E+003 +0.284703976490603E+003 +0.281476787269282E+003 +0.282304361514317E+003 +0.284677436929827E+003 +0.282403151705244E+003 +0.284659174361588E+003 +0.282358834554036E+003 +0.284642205458432E+003 +0.282470743104834E+003 +0.284613768100161E+003 +0.282622770394959E+003 +0.284586801748888E+003 +0.281065404962828E+003 +0.282530791164745E+003 +0.284568640083299E+003 +0.282787583701477E+003 +0.284577162523712E+003 +0.282936285420977E+003 +0.284560289178200E+003 +0.282401647299199E+003 +0.275424932441316E+003 +0.275008705463942E+003 +0.281657226833523E+003 +0.274012256978399E+003 +0.281528954495653E+003 +0.273374631649012E+003 +0.273719126927951E+003 +0.281752033361010E+003 +0.274634620240010E+003 +0.274497847584874E+003 +0.274306121637606E+003 +0.274427806649723E+003 +0.274154330817478E+003 +0.273997695155199E+003 +0.273873822128748E+003 +0.273628246519020E+003 +0.281788934099169E+003 +0.283470627774963E+003 +0.273832513156983E+003 +0.284541091355198E+003 +0.273512839487821E+003 +0.273602200238134E+003 +0.281739120773807E+003 +0.284689606322657E+003 +0.276385653742353E+003 +0.281657117797653E+003 +0.276570560506458E+003 +0.281489517804647E+003 +0.273664329571509E+003 +0.273346693947315E+003 +0.281480931076042E+003 +0.281440968334163E+003 +0.281237840204575E+003 +0.281138357659737E+003 +0.281173091624638E+003 +0.273362698874489E+003 +0.280905415736595E+003 +0.281003111267759E+003 +0.280904184626341E+003 +0.275380019620756E+003 +0.281440909642795E+003 +0.284144962463915E+003 +0.280831947820978E+003 +0.269047051872523E+003 +0.269069838735575E+003 +0.269054900001291E+003 +0.280962605836156E+003
        </DataArray>
        <DataArray type="Float64" NumberOfComponents="1" Name="R__Res" format="ascii">
            0.000000000000000E+000  0.000000000000000E+000  0.000000000000000E+000  0.000000000000000E+000  0.000000000000000E+000  0.000000000000000E+000  0.000000000000000E+000  0.000000000000000E+000  0.000000000000000E+000  0.000000000000000E+000  0.000000000000000E+000  0.000000000000000E+000  0.000000000000000E+000  0.000000000000000E+000  0.000000000000000E+000  0.000000000000000E+000  0.000000000000000E+000  0.000000000000000E+000  0.000000000000000E+000  0.000000000000000E+000  0.000000000000000E+000  0.000000000000000E+000  0.000000000000000E+000 +0.455712549046619E-001 +0.814819234462194E-002 -0.221601625938206E-010 +0.442227958932162E-002 -0.327274104415525E-001  0.000000000000000E+000  0.000000000000000E+000  0.000000000000000E+000  0.000000000000000E+000  0.000000000000000E+000  0.000000000000000E+000  0.000000000000000E+000  0.000000000000000E+000  0.000000000000000E+000  0.000000000000000E+000  0.000000000000000E+000  0.000000000000000E+000  0.000000000000000E+000  0.000000000000000E+000  0.000000000000000E+000  0.000000000000000E+000  0.000000000000000E+000  0.000000000000000E+000  0.000000000000000E+000 -0.420608562416940E-001 -0.205204742087517E-010 -0.170340963556725E-010 +0.456637958934261E-002 -0.326919856780690E-001 -0.171218673805749E+000 -0.188616898167754E+000 -0.180742069480234E+000 -0.190139334327716E+000 -0.185064321127800E+000 -0.192360444942544E+000 -0.144938373707291E+000 -0.380659948007178E-010 -0.321980220263640E-010 -0.193675799515577E+000 -0.150492846116695E+000 -0.163567083110678E+000 -0.176620433459064E+000 -0.185443876923529E+000 -0.187075707326983E+000 -0.202266632894145E+000 -0.153658362856147E+000 +0.241415182392748E-001 -0.101236587048754E+000 -0.200298973091936E+000 -0.507649478009853E-010 -0.514921438821148E-011 -0.398753252639494E-010 -0.479201678338370E-010 -0.412714862285668E-010 -0.384454690305347E-010 +0.340576455926112E-010 -0.433646452080438E-010 +0.286881629563140E-012 -0.420927737110333E-010 -0.509738917742197E-010 -0.403889144351410E-010 -0.411309875048005E-010 -0.489454032859271E-010 -0.388302168197185E-010 -0.514346343294392E-010 -0.532394683894211E-010 -0.551341194920951E-010 -0.456541471294258E-010 -0.463901139724499E-010 -0.362460061964498E-010 -0.443600711719228E-010 -0.420043999582731E-010 -0.487002660420899E-010 -0.434497993140326E-010 -0.460693705406356E-010 -0.519642107121854E-010 -0.547928369343254E-010 -0.522006882164305E-010 -0.360027563317544E-010 -0.577137226898117E-010 -0.311312087220017E-010 -0.650082210285063E-010 -0.294120283683696E-010 -0.464887017770366E-010 -0.415742995585333E-010 -0.123201166444361E+000 -0.151998947435062E+000 -0.355927509687604E-010 -0.180086780377227E+000 -0.114128706485417E-010 -0.964529274033721E-001 -0.192530105145907E+000 +0.273336908662714E-012 -0.144119435197398E+000 -0.165910320054841E+000 -0.174229056345422E+000 -0.160571272431721E+000 -0.178781662211397E+000 -0.183440225409516E+000 -0.189040517652223E+000 -0.185755639483508E+000 +0.329145599664571E-010 -0.491813256786600E-010 -0.186542014770740E+000 +0.532046628975991E-010 -0.838916231846794E-001 -0.184183363884053E+000 +0.384361431571278E-010 -0.532568433797564E-010 +0.124922272211458E-001 +0.677897737944022E-010 +0.127242471449243E-001 -0.628754825982014E-010 -0.194484561941920E+000 -0.191295948329068E+000 -0.133126842882803E-010 +0.344384520900576E-010 +0.445465886400598E-010 +0.837949709620034E-010 -0.126191279647969E-010 -0.188555630926856E+000 -0.171114233893377E-010 -0.456070736731817E-010 +0.144575462712737E-010 -0.119294704584910E+000 +0.338081784789779E-010 -0.214165352119267E-010 +0.590549831258613E-011 +0.452709826585940E-001 +0.649993647948808E-001 +0.675215627896364E-001 -0.156354373892498E-010
        </DataArray>
      </PointData>
    </Piece>
  </UnstructuredGrid>
</VTKFile>
