<?xml version="1.0"?>
<VTKFile type="UnstructuredGrid" version="1.0" byte_order="LittleEndian">
  <UnstructuredGrid>
    <Piece NumberOfPoints="+155" NumberOfCells="+256">
      <Points>
        <DataArray type="Float64" NumberOfComponents="3" Name="Points" format="ascii">
           0.000000000000000E+000  0.000000000000000E+000  0.000000000000000E+000+0.100000000000000E+000  0.000000000000000E+000  0.000000000000000E+000+0.100000000000000E+000 +0.260000000000000E-001  0.000000000000000E+000 0.000000000000000E+000 +0.260000000000000E-001  0.000000000000000E+000+0.499999999999030E-002  0.000000000000000E+000  0.000000000000000E+000+0.999999999998248E-002  0.000000000000000E+000  0.000000000000000E+000+0.149999999999717E-001  0.000000000000000E+000  0.000000000000000E+000+0.199999999999560E-001  0.000000000000000E+000  0.000000000000000E+000+0.249999999999416E-001  0.000000000000000E+000  0.000000000000000E+000+0.299999999999273E-001  0.000000000000000E+000  0.000000000000000E+000+0.349999999999129E-001  0.000000000000000E+000  0.000000000000000E+000+0.399999999998958E-001  0.000000000000000E+000  0.000000000000000E+000+0.449999999998815E-001  0.000000000000000E+000  0.000000000000000E+000+0.499999999998685E-001  0.000000000000000E+000  0.000000000000000E+000+0.549999999998802E-001  0.000000000000000E+000  0.000000000000000E+000+0.599999999998943E-001  0.000000000000000E+000  0.000000000000000E+000+0.649999999999086E-001  0.000000000000000E+000  0.000000000000000E+000+0.699999999999197E-001  0.000000000000000E+000  0.000000000000000E+000+0.749999999999336E-001  0.000000000000000E+000  0.000000000000000E+000+0.799999999999474E-001  0.000000000000000E+000  0.000000000000000E+000+0.849999999999585E-001  0.000000000000000E+000  0.000000000000000E+000+0.899999999999729E-001  0.000000000000000E+000  0.000000000000000E+000+0.949999999999878E-001  0.000000000000000E+000  0.000000000000000E+000+0.100000000000000E+000 +0.433333333332438E-002  0.000000000000000E+000+0.100000000000000E+000 +0.866666666664460E-002  0.000000000000000E+000+0.100000000000000E+000 +0.129999999999662E-001  0.000000000000000E+000+0.100000000000000E+000 +0.173333333333106E-001  0.000000000000000E+000+0.100000000000000E+000 +0.216666666666560E-001  0.000000000000000E+000+0.950000000000138E-001 +0.260000000000000E-001  0.000000000000000E+000+0.900000000000276E-001 +0.260000000000000E-001  0.000000000000000E+000+0.850000000000415E-001 +0.260000000000000E-001  0.000000000000000E+000+0.800000000000553E-001 +0.260000000000000E-001  0.000000000000000E+000+0.750000000000691E-001 +0.260000000000000E-001  0.000000000000000E+000+0.700000000000829E-001 +0.260000000000000E-001  0.000000000000000E+000+0.650000000000968E-001 +0.260000000000000E-001  0.000000000000000E+000+0.600000000001106E-001 +0.260000000000000E-001  0.000000000000000E+000+0.550000000001244E-001 +0.260000000000000E-001  0.000000000000000E+000+0.500000000001369E-001 +0.260000000000000E-001  0.000000000000000E+000+0.450000000001247E-001 +0.260000000000000E-001  0.000000000000000E+000+0.400000000001100E-001 +0.260000000000000E-001  0.000000000000000E+000+0.350000000000951E-001 +0.260000000000000E-001  0.000000000000000E+000+0.300000000000835E-001 +0.260000000000000E-001  0.000000000000000E+000+0.250000000000691E-001 +0.260000000000000E-001  0.000000000000000E+000+0.200000000000548E-001 +0.260000000000000E-001  0.000000000000000E+000+0.150000000000431E-001 +0.260000000000000E-001  0.000000000000000E+000+0.100000000000282E-001 +0.260000000000000E-001  0.000000000000000E+000+0.500000000001274E-002 +0.260000000000000E-001  0.000000000000000E+000 0.000000000000000E+000 +0.216666666666761E-001  0.000000000000000E+000 0.000000000000000E+000 +0.173333333333561E-001  0.000000000000000E+000 0.000000000000000E+000 +0.130000000000335E-001  0.000000000000000E+000 0.000000000000000E+000 +0.866666666668923E-002  0.000000000000000E+000 0.000000000000000E+000 +0.433333333334393E-002  0.000000000000000E+000+0.474770501596061E-001 +0.449457555865549E-002  0.000000000000000E+000+0.624137095822587E-001 +0.218639104185592E-001  0.000000000000000E+000+0.274710820211137E-001 +0.439781066491993E-002  0.000000000000000E+000+0.775162404499768E-001 +0.218822875726493E-001  0.000000000000000E+000+0.175000000000489E-001 +0.216698729810677E-001  0.000000000000000E+000+0.374049377742800E-001 +0.217454153049271E-001  0.000000000000000E+000+0.873299162642599E-001 +0.493503711796043E-002  0.000000000000000E+000+0.962472232502677E-001 +0.151666666666384E-001  0.000000000000000E+000+0.361092965627013E-002 +0.107352657633569E-001  0.000000000000000E+000+0.524222487305538E-001 +0.217494710322139E-001  0.000000000000000E+000+0.724471979965309E-001 +0.480286472974082E-002  0.000000000000000E+000+0.574556233588582E-001 +0.465234046326982E-002  0.000000000000000E+000+0.374775082418216E-001 +0.443588749052796E-002  0.000000000000000E+000+0.174620748440649E-001 +0.432604372433973E-002  0.000000000000000E+000+0.274069445303662E-001 +0.216995189535168E-001  0.000000000000000E+000+0.875000000000345E-001 +0.216698729810898E-001  0.000000000000000E+000+0.768509429014877E-002 +0.215379337211246E-001  0.000000000000000E+000+0.963904321494850E-001 +0.661398939465712E-002  0.000000000000000E+000+0.727642177052906E-002 +0.443011470774208E-002  0.000000000000000E+000+0.124449834836647E-001 +0.431291926454894E-002  0.000000000000000E+000+0.149241258378327E-001 +0.860791945987163E-002  0.000000000000000E+000+0.199074884808963E-001 +0.868183890874860E-002  0.000000000000000E+000+0.173445817427756E-001 +0.129363585197896E-001  0.000000000000000E+000+0.223149927841523E-001 +0.130318645013867E-001  0.000000000000000E+000+0.124626594021863E-001 +0.128806353569139E-001  0.000000000000000E+000+0.148978737522776E-001 +0.172549170089808E-001  0.000000000000000E+000+0.100477085488613E-001 +0.173020481200621E-001  0.000000000000000E+000+0.248943288561033E-001 +0.874693478464290E-002  0.000000000000000E+000+0.273027333778438E-001 +0.131023208673426E-001  0.000000000000000E+000+0.298881968642471E-001 +0.882634524946797E-002  0.000000000000000E+000+0.322939746294813E-001 +0.132008562712349E-001  0.000000000000000E+000+0.348859478408316E-001 +0.889254633445792E-002  0.000000000000000E+000+0.372904969874290E-001 +0.132949678594278E-001  0.000000000000000E+000+0.398845499064174E-001 +0.897728704381017E-002  0.000000000000000E+000+0.422917602893396E-001 +0.133530215891990E-001  0.000000000000000E+000+0.448841050044180E-001 +0.904101635819934E-002  0.000000000000000E+000+0.472915329690292E-001 +0.134187777030845E-001  0.000000000000000E+000+0.448528380708523E-001 +0.175735435605107E-001  0.000000000000000E+000+0.498836917835918E-001 +0.911991320375936E-002  0.000000000000000E+000+0.522874069975051E-001 +0.135507216540452E-001  0.000000000000000E+000+0.548790812949033E-001 +0.921149949688830E-002  0.000000000000000E+000+0.572863231540567E-001 +0.136388959671376E-001  0.000000000000000E+000+0.598790589316415E-001 +0.918407375678816E-002  0.000000000000000E+000+0.623590312841999E-001 +0.136161871876397E-001  0.000000000000000E+000+0.648882846946340E-001 +0.929768835114423E-002  0.000000000000000E+000+0.673708037938968E-001 +0.137654412938815E-001  0.000000000000000E+000+0.698815075929149E-001 +0.944835648181582E-002  0.000000000000000E+000+0.723006618538128E-001 +0.138184730749027E-001  0.000000000000000E+000+0.699048578930071E-001 +0.178446291117357E-001  0.000000000000000E+000+0.748765735527623E-001 +0.937460219893974E-002  0.000000000000000E+000+0.773169545123332E-001 +0.138727132318244E-001  0.000000000000000E+000+0.798463307594286E-001 +0.960013646147148E-002  0.000000000000000E+000+0.823528893119287E-001 +0.139299421283865E-001  0.000000000000000E+000+0.847816044956594E-001 +0.970343309172691E-002  0.000000000000000E+000+0.872193013720580E-001 +0.140356141943716E-001  0.000000000000000E+000+0.894050078821107E-001 +0.926570675087459E-002  0.000000000000000E+000+0.824082332243445E-001 +0.499899823812024E-002  0.000000000000000E+000+0.674500068614159E-001 +0.480706579594959E-002  0.000000000000000E+000+0.102343281449715E-001 +0.864992134013922E-002  0.000000000000000E+000+0.125217794319013E-001 +0.216274619718725E-001  0.000000000000000E+000+0.530727028577484E-002 +0.174243678533301E-001  0.000000000000000E+000+0.927072212021592E-001 +0.216524795078309E-001  0.000000000000000E+000+0.825446721529249E-001 +0.217623324626207E-001  0.000000000000000E+000+0.248287209997012E-001 +0.173700977842713E-001  0.000000000000000E+000+0.774559974953847E-001 +0.467369623047021E-002  0.000000000000000E+000+0.524492410994514E-001 +0.457972145376216E-002  0.000000000000000E+000+0.424538688853401E-001 +0.449146107519883E-002  0.000000000000000E+000+0.624631306950981E-001 +0.456708086287553E-002  0.000000000000000E+000+0.324537891613090E-001 +0.442543162322896E-002  0.000000000000000E+000+0.224558290336793E-001 +0.435877134710853E-002  0.000000000000000E+000+0.323740723540678E-001 +0.216972078724282E-001  0.000000000000000E+000+0.573773859284986E-001 +0.217991888252024E-001  0.000000000000000E+000+0.198976948798363E-001 +0.173400626964691E-001  0.000000000000000E+000+0.962582298363988E-001 +0.110362954798282E-001  0.000000000000000E+000+0.224563524297887E-001 +0.217077368256298E-001  0.000000000000000E+000+0.921069635138181E-001 +0.135809272238655E-001  0.000000000000000E+000+0.923858042830145E-001 +0.440245293971425E-002  0.000000000000000E+000+0.474148725805479E-001 +0.218043592700527E-001  0.000000000000000E+000+0.297698604248976E-001 +0.173792298551515E-001  0.000000000000000E+000+0.734871392924924E-002 +0.128570511094810E-001  0.000000000000000E+000+0.363766117527133E-002 +0.655253480415738E-002  0.000000000000000E+000+0.347814593749260E-001 +0.174396077677385E-001  0.000000000000000E+000+0.964468684680814E-001 +0.193951920109048E-001  0.000000000000000E+000+0.398535820828240E-001 +0.175636784640132E-001  0.000000000000000E+000+0.424210384181232E-001 +0.217811660999173E-001  0.000000000
[...]
      <PointData>
        <DataArray type="Float64" NumberOfComponents="1" Name="T__TempConverged" format="ascii">
           +0.263150000000000E+003 +0.263150000000000E+003 +0.263150000000000E+003 +0.263150000000000E+003 +0.263150000000000E+003 +0.263150000000000E+003 +0.263150000000000E+003 +0.263150000000000E+003 +0.263150000000000E+003 +0.263150000000000E+003 +0.263150000000000E+003 +0.263150000000000E+003 +0.263150000000000E+003 +0.263150000000000E+003 +0.263150000000000E+003 +0.263150000000000E+003 +0.263150000000000E+003 +0.263150000000000E+003 +0.263150000000000E+003 +0.263150000000000E+003 +0.263150000000000E+003 +0.263150000000000E+003 +0.263150000000000E+003 +0.282832102016107E+003 +0.296402934372335E+003 +0.299893650246766E+003 +0.296451572242047E+003 +0.282856787620992E+003 +0.263150000000000E+003 +0.263150000000000E+003 +0.263150000000000E+003 +0.263150000000000E+003 +0.263150000000000E+003 +0.263150000000000E+003 +0.263150000000000E+003 +0.263150000000000E+003 +0.263150000000000E+003 +0.263150000000000E+003 +0.263150000000000E+003 +0.263150000000000E+003 +0.263150000000000E+003 +0.263150000000000E+003 +0.263150000000000E+003 +0.263150000000000E+003 +0.263150000000000E+003 +0.263150000000000E+003 +0.263150000000000E+003 +0.280982774237572E+003 +0.295826336722728E+003 +0.299733138277675E+003 +0.296423188476430E+003 +0.282841330313101E+003 +0.282398873764686E+003 +0.281257969242375E+003 +0.282101948388239E+003 +0.281186243072365E+003 +0.281886349066592E+003 +0.281647867406646E+003 +0.283807438601111E+003 +0.299007283125587E+003 +0.298833072786258E+003 +0.281642814772707E+003 +0.283360082293905E+003 +0.282908140507756E+003 +0.282218648667822E+003 +0.281869171154302E+003 +0.281793503230369E+003 +0.281869028695492E+003 +0.282233448033719E+003 +0.291370345621771E+003 +0.282535485448090E+003 +0.281808333412026E+003 +0.295947521019834E+003 +0.296040582553613E+003 +0.299914132733365E+003 +0.299895359432475E+003 +0.299859318548511E+003 +0.296147447278373E+003 +0.295937114169546E+003 +0.296137603691775E+003 +0.299884727262804E+003 +0.296260524804942E+003 +0.299880342448446E+003 +0.296369246928277E+003 +0.299877835366141E+003 +0.296497246055748E+003 +0.299867897804518E+003 +0.296587362048224E+003 +0.299848084382027E+003 +0.295621535272266E+003 +0.296687638033143E+003 +0.299814772231708E+003 +0.296817240475533E+003 +0.299802563511290E+003 +0.296739396890423E+003 +0.299797469747087E+003 +0.296881950691739E+003 +0.299776208884134E+003 +0.297085303080447E+003 +0.299755146890349E+003 +0.295109685156778E+003 +0.296940884582662E+003 +0.299719571103135E+003 +0.297275306302034E+003 +0.299666687903206E+003 +0.297469704919588E+003 +0.299622747935116E+003 +0.296967042045490E+003 +0.283989417607755E+003 +0.283390161230384E+003 +0.296140646025884E+003 +0.281985174334823E+003 +0.295332681914026E+003 +0.282235120894021E+003 +0.281576488904679E+003 +0.295968162269746E+003 +0.282903280018582E+003 +0.282674744439847E+003 +0.282403235702408E+003 +0.282592910626439E+003 +0.282190351058471E+003 +0.281974768618727E+003 +0.281806960957001E+003 +0.281483183012089E+003 +0.296015408533844E+003 +0.299129624470905E+003 +0.281761245469985E+003 +0.299777042572313E+003 +0.282373228194540E+003 +0.281444279597375E+003 +0.295947646009452E+003 +0.299857451632924E+003 +0.291180781443298E+003 +0.295838751385130E+003 +0.291405805086577E+003 +0.295611977853610E+003 +0.281529671981435E+003 +0.281102651961106E+003 +0.295621811106161E+003 +0.295554669174140E+003 +0.295298021129164E+003 +0.295198531284179E+003 +0.295377598096046E+003 +0.281138056284422E+003 +0.294680719097752E+003 +0.295023325525071E+003 +0.294792661461688E+003 +0.284065598517063E+003 +0.296406683682079E+003 +0.299145866126517E+003 +0.295637822737121E+003 +0.277310565781593E+003 +0.277279982730432E+003 +0.277273560837057E+003 +0.295896788791581E+003
        </DataArray>
        <DataArray type="Float64" NumberOfComponents="1" Name="R__Res" format="ascii">
            0.000000000000000E+000  0.000000000000000E+000  0.000000000000000E+000  0.000000000000000E+000  0.000000000000000E+000  0.000000000000000E+000  0.000000000000000E+000  0.000000000000000E+000  0.000000000000000E+000  0.000000000000000E+000  0.000000000000000E+000  0.000000000000000E+000  0.000000000000000E+000  0.000000000000000E+000  0.000000000000000E+000  0.000000000000000E+000  0.000000000000000E+000  0.000000000000000E+000  0.000000000000000E+000  0.000000000000000E+000  0.000000000000000E+000  0.000000000000000E+000  0.000000000000000E+000 -0.825670274455107E-001 +0.576050374068160E-009 +0.373841929635077E-009 +0.559412016709615E-009 -0.804058368220731E-001  0.000000000000000E+000  0.000000000000000E+000  0.000000000000000E+000  0.000000000000000E+000  0.000000000000000E+000  0.000000000000000E+000  0.000000000000000E+000  0.000000000000000E+000  0.000000000000000E+000  0.000000000000000E+000  0.000000000000000E+000  0.000000000000000E+000  0.000000000000000E+000  0.000000000000000E+000  0.000000000000000E+000  0.000000000000000E+000  0.000000000000000E+000  0.000000000000000E+000  0.000000000000000E+000 -0.749166551112213E-001 +0.801612998202472E-009 +0.342288086763176E-009 +0.567542457474701E-009 -0.809360417613245E-001 -0.388071103086883E+000 -0.402017548814949E+000 -0.390400529997740E+000 -0.404612074922392E+000 -0.392019591532517E+000 -0.397577041976984E+000 -0.359087946638529E+000 +0.821547940788037E-009 +0.779650122240128E-009 -0.394326717415602E+000 -0.372953585031862E+000 -0.379605323827544E+000 -0.390004320522454E+000 -0.393574081466539E+000 -0.392418585477344E+000 -0.387197474099182E+000 -0.352841758983552E+000 +0.149164236518118E-008 -0.361508936575481E+000 -0.394323768150706E+000 -0.508659625531038E-008 +0.827665225244800E-008 +0.436754243882120E-008 +0.112888398628996E-008 +0.424932833364977E-008 +0.151117451885341E-008 +0.120307128703701E-007 +0.242958919649539E-008 +0.123728867151840E-007 +0.150666190634752E-008 -0.219988249838821E-008 +0.152557610988424E-008 +0.153287976756289E-008 +0.444195014104309E-008 +0.170650865660704E-008 -0.519471798909876E-009 +0.307764258522525E-008 +0.188048876470504E-007 +0.586508996924806E-008 -0.559460144877733E-009 +0.126913983766741E-007 +0.108366512430180E-007 +0.478114503543736E-008 -0.161320451441682E-008 +0.151210133303437E-008 +0.293124202688233E-008 +0.311417647225198E-008 -0.773197061931796E-010 -0.123862320400292E-008 +0.101331010249339E-008 +0.582988335384726E-008 +0.127309454089897E-007 +0.421940249406560E-008 +0.538797362281684E-008 -0.340147021660187E-009 +0.135954869584509E-008 -0.358143964919001E+000 -0.371144064946088E+000 +0.192996219006147E-008 -0.385322552530159E+000 +0.555515322631095E-008 -0.366744220846138E+000 -0.391401305055958E+000 +0.599383054300517E-008 -0.381343708348542E+000 -0.382957402359954E+000 -0.387284045820925E+000 -0.385960231542921E+000 -0.389765331364128E+000 -0.392270566983228E+000 -0.393929664559916E+000 -0.397680425959974E+000 -0.316225023944128E-008 +0.847594217034953E-009 -0.393044517116712E+000 -0.731079696780768E-009 -0.374589164748270E+000 -0.399254831370947E+000 +0.127848833741950E-007 +0.172424745037425E-007 -0.261287835812141E-008 -0.525682164465024E-009 -0.143331586599516E-007 +0.480378270495407E-008 -0.398253266300237E+000 -0.405488011450493E+000 +0.175671845958902E-007 -0.114905440717905E-008 -0.346992434785420E-008 +0.192715798874588E-008 -0.109853002250304E-007 -0.402272665437628E+000 -0.899129659615028E-008 +0.147031311570345E-007 -0.999088700659456E-008 -0.314475946940079E+000 -0.417051837509064E-008 +0.994506699214526E-009 +0.548595524563211E-008 -0.535837675090823E+000 -0.527452416827253E+000 -0.528736381904004E+000 -0.167770286552127E-008
        </DataArray>
      </PointData>
    </Piece>
  </UnstructuredGrid>
</VTKFile>
