<?xml version="1.0"?>
<VTKFile type="UnstructuredGrid" version="1.0" byte_order="LittleEndian">
  <UnstructuredGrid>
    <Piece NumberOfPoints="+155" NumberOfCells="+256">
      <Points>
        <DataArray type="Float64" NumberOfComponents="3" Name="Points" format="ascii">
           0.000000000000000E+000  0.000000000000000E+000  0.000000000000000E+000+0.100000000000000E+000  0.000000000000000E+000  0.000000000000000E+000+0.100000000000000E+000 +0.260000000000000E-001  0.000000000000000E+000 0.000000000000000E+000 +0.260000000000000E-001  0.000000000000000E+000+0.499999999999030E-002  0.000000000000000E+000  0.000000000000000E+000+0.999999999998248E-002  0.000000000000000E+000  0.000000000000000E+000+0.149999999999717E-001  0.000000000000000E+000  0.000000000000000E+000+0.199999999999560E-001  0.000000000000000E+000  0.000000000000000E+000+0.249999999999416E-001  0.000000000000000E+000  0.000000000000000E+000+0.299999999999273E-001  0.000000000000000E+000  0.000000000000000E+000+0.349999999999129E-001  0.000000000000000E+000  0.000000000000000E+000+0.399999999998958E-001  0.000000000000000E+000  0.000000000000000E+000+0.449999999998815E-001  0.000000000000000E+000  0.000000000000000E+000+0.499999999998685E-001  0.000000000000000E+000  0.000000000000000E+000+0.549999999998802E-001  0.000000000000000E+000  0.000000000000000E+000+0.599999999998943E-001  0.000000000000000E+000  0.000000000000000E+000+0.649999999999086E-001  0.000000000000000E+000  0.000000000000000E+000+0.699999999999197E-001  0.000000000000000E+000  0.000000000000000E+000+0.749999999999336E-001  0.000000000000000E+000  0.000000000000000E+000+0.799999999999474E-001  0.000000000000000E+000  0.000000000000000E+000+0.849999999999585E-001  0.000000000000000E+000  0.000000000000000E+000+0.899999999999729E-001  0.000000000000000E+000  0.000000000000000E+000+0.949999999999878E-001  0.000000000000000E+000  0.000000000000000E+000+0.100000000000000E+000 +0.433333333332438E-002  0.000000000000000E+000+0.100000000000000E+000 +0.866666666664460E-002  0.000000000000000E+000+0.100000000000000E+000 +0.129999999999662E-001  0.000000000000000E+000+0.100000000000000E+000 +0.173333333333106E-001  0.000000000000000E+000+0.100000000000000E+000 +0.216666666666560E-001  0.000000000000000E+000+0.950000000000138E-001 +0.260000000000000E-001  0.000000000000000E+000+0.900000000000276E-001 +0.260000000000000E-001  0.000000000000000E+000+0.850000000000415E-001 +0.260000000000000E-001  0.000000000000000E+000+0.800000000000553E-001 +0.260000000000000E-001  0.000000000000000E+000+0.750000000000691E-001 +0.260000000000000E-001  0.000000000000000E+000+0.700000000000829E-001 +0.260000000000000E-001  0.000000000000000E+000+0.650000000000968E-001 +0.260000000000000E-001  0.000000000000000E+000+0.600000000001106E-001 +0.260000000000000E-001  0.000000000000000E+000+0.550000000001244E-001 +0.260000000000000E-001  0.000000000000000E+000+0.500000000001369E-001 +0.260000000000000E-001  0.000000000000000E+000+0.450000000001247E-001 +0.260000000000000E-001  0.000000000000000E+000+0.400000000001100E-001 +0.260000000000000E-001  0.000000000000000E+000+0.350000000000951E-001 +0.260000000000000E-001  0.000000000000000E+000+0.300000000000835E-001 +0.260000000000000E-001  0.000000000000000E+000+0.250000000000691E-001 +0.260000000000000E-001  0.000000000000000E+000+0.200000000000548E-001 +0.260000000000000E-001  0.000000000000000E+000+0.150000000000431E-001 +0.260000000000000E-001  0.000000000000000E+000+0.100000000000282E-001 +0.260000000000000E-001  0.000000000000000E+000+0.500000000001274E-002 +0.260000000000000E-001  0.000000000000000E+000 0.000000000000000E+000 +0.216666666666761E-001  0.000000000000000E+000 0.000000000000000E+000 +0.173333333333561E-001  0.000000000000000E+000 0.000000000000000E+000 +0.130000000000335E-001  0.000000000000000E+000 0.000000000000000E+000 +0.866666666668923E-002  0.000000000000000E+000 0.000000000000000E+000 +0.433333333334393E-002  0.000000000000000E+000+0.474770501596061E-001 +0.449457555865549E-002  0.000000000000000E+000+0.624137095822587E-001 +0.218639104185592E-001  0.000000000000000E+000+0.274710820211137E-001 +0.439781066491993E-002  0.000000000000000E+000+0.775162404499768E-001 +0.218822875726493E-001  0.000000000000000E+000+0.175000000000489E-001 +0.216698729810677E-001  0.000000000000000E+000+0.374049377742800E-001 +0.217454153049271E-001  0.000000000000000E+000+0.873299162642599E-001 +0.493503711796043E-002  0.000000000000000E+000+0.962472232502677E-001 +0.151666666666384E-001  0.000000000000000E+000+0.361092965627013E-002 +0.107352657633569E-001  0.000000000000000E+000+0.524222487305538E-001 +0.217494710322139E-001  0.000000000000000E+000+0.724471979965309E-001 +0.480286472974082E-002  0.000000000000000E+000+0.574556233588582E-001 +0.465234046326982E-002  0.000000000000000E+000+0.374775082418216E-001 +0.443588749052796E-002  0.000000000000000E+000+0.174620748440649E-001 +0.432604372433973E-002  0.000000000000000E+000+0.274069445303662E-001 +0.216995189535168E-001  0.000000000000000E+000+0.875000000000345E-001 +0.216698729810898E-001  0.000000000000000E+000+0.768509429014877E-002 +0.215379337211246E-001  0.000000000000000E+000+0.963904321494850E-001 +0.661398939465712E-002  0.000000000000000E+000+0.727642177052906E-002 +0.443011470774208E-002  0.000000000000000E+000+0.124449834836647E-001 +0.431291926454894E-002  0.000000000000000E+000+0.149241258378327E-001 +0.860791945987163E-002  0.000000000000000E+000+0.199074884808963E-001 +0.868183890874860E-002  0.000000000000000E+000+0.173445817427756E-001 +0.129363585197896E-001  0.000000000000000E+000+0.223149927841523E-001 +0.130318645013867E-001  0.000000000000000E+000+0.124626594021863E-001 +0.128806353569139E-001  0.000000000000000E+000+0.148978737522776E-001 +0.172549170089808E-001  0.000000000000000E+000+0.100477085488613E-001 +0.173020481200621E-001  0.000000000000000E+000+0.248943288561033E-001 +0.874693478464290E-002  0.000000000000000E+000+0.273027333778438E-001 +0.131023208673426E-001  0.000000000000000E+000+0.298881968642471E-001 +0.882634524946797E-002  0.000000000000000E+000+0.322939746294813E-001 +0.132008562712349E-001  0.000000000000000E+000+0.348859478408316E-001 +0.889254633445792E-002  0.000000000000000E+000+0.372904969874290E-001 +0.132949678594278E-001  0.000000000000000E+000+0.398845499064174E-001 +0.897728704381017E-002  0.000000000000000E+000+0.422917602893396E-001 +0.133530215891990E-001  0.000000000000000E+000+0.448841050044180E-001 +0.904101635819934E-002  0.000000000000000E+000+0.472915329690292E-001 +0.134187777030845E-001  0.000000000000000E+000+0.448528380708523E-001 +0.175735435605107E-001  0.000000000000000E+000+0.498836917835918E-001 +0.911991320375936E-002  0.000000000000000E+000+0.522874069975051E-001 +0.135507216540452E-001  0.000000000000000E+000+0.548790812949033E-001 +0.921149949688830E-002  0.000000000000000E+000+0.572863231540567E-001 +0.136388959671376E-001  0.000000000000000E+000+0.598790589316415E-001 +0.918407375678816E-002  0.000000000000000E+000+0.623590312841999E-001 +0.136161871876397E-001  0.000000000000000E+000+0.648882846946340E-001 +0.929768835114423E-002  0.000000000000000E+000+0.673708037938968E-001 +0.137654412938815E-001  0.000000000000000E+000+0.698815075929149E-001 +0.944835648181582E-002  0.000000000000000E+000+0.723006618538128E-001 +0.138184730749027E-001  0.000000000000000E+000+0.699048578930071E-001 +0.178446291117357E-001  0.000000000000000E+000+0.748765735527623E-001 +0.937460219893974E-002  0.000000000000000E+000+0.773169545123332E-001 +0.138727132318244E-001  0.000000000000000E+000+0.798463307594286E-001 +0.960013646147148E-002  0.000000000000000E+000+0.823528893119287E-001 +0.139299421283865E-001  0.000000000000000E+000+0.847816044956594E-001 +0.970343309172691E-002  0.000000000000000E+000+0.872193013720580E-001 +0.140356141943716E-001  0.000000000000000E+000+0.894050078821107E-001 +0.926570675087459E-002  0.000000000000000E+000+0.824082332243445E-001 +0.499899823812024E-002  0.000000000000000E+000+0.674500068614159E-001 +0.480706579594959E-002  0.000000000000000E+000+0.102343281449715E-001 +0.864992134013922E-002  0.000000000000000E+000+0.125217794319013E-001 +0.216274619718725E-001  0.000000000000000E+000+0.530727028577484E-002 +0.174243678533301E-001  0.000000000000000E+000+0.927072212021592E-001 +0.216524795078309E-001  0.000000000000000E+000+0.825446721529249E-001 +0.217623324626207E-001  0.000000000000000E+000+0.248287209997012E-001 +0.173700977842713E-001  0.000000000000000E+000+0.774559974953847E-001 +0.467369623047021E-002  0.000000000000000E+000+0.524492410994514E-001 +0.457972145376216E-002  0.000000000000000E+000+0.424538688853401E-001 +0.449146107519883E-002  0.000000000000000E+000+0.624631306950981E-001 +0.456708086287553E-002  0.000000000000000E+000+0.324537891613090E-001 +0.442543162322896E-002  0.000000000000000E+000+0.224558290336793E-001 +0.435877134710853E-002  0.000000000000000E+000+0.323740723540678E-001 +0.216972078724282E-001  0.000000000000000E+000+0.573773859284986E-001 +0.217991888252024E-001  0.000000000000000E+000+0.198976948798363E-001 +0.173400626964691E-001  0.000000000000000E+000+0.962582298363988E-001 +0.110362954798282E-001  0.000000000000000E+000+0.224563524297887E-001 +0.217077368256298E-001  0.000000000000000E+000+0.921069635138181E-001 +0.135809272238655E-001  0.000000000000000E+000+0.923858042830145E-001 +0.440245293971425E-002  0.000000000000000E+000+0.474148725805479E-001 +0.218043592700527E-001  0.000000000000000E+000+0.297698604248976E-001 +0.173792298551515E-001  0.000000000000000E+000+0.734871392924924E-002 +0.128570511094810E-001  0.000000000000000E+000+0.363766117527133E-002 +0.655253480415738E-002  0.000000000000000E+000+0.347814593749260E-001 +0.174396077677385E-001  0.000000000000000E+000+0.964468684680814E-001 +0.193951920109048E-001  0.000000000000000E+000+0.398535820828240E-001 +0.175636784640132E-001  0.000000000000000E+000+0.424210384181232E-001 +0.217811660999173E-001  0.000000000
[...]
      <PointData>
        <DataArray type="Float64" NumberOfComponents="1" Name="T__TempConverged" format="ascii">
           +0.263150000000000E+003 +0.263150000000000E+003 +0.263150000000000E+003 +0.263150000000000E+003 +0.263150000000000E+003 +0.263150000000000E+003 +0.263150000000000E+003 +0.263150000000000E+003 +0.263150000000000E+003 +0.263150000000000E+003 +0.263150000000000E+003 +0.263150000000000E+003 +0.263150000000000E+003 +0.263150000000000E+003 +0.263150000000000E+003 +0.263150000000000E+003 +0.263150000000000E+003 +0.263150000000000E+003 +0.263150000000000E+003 +0.263150000000000E+003 +0.263150000000000E+003 +0.263150000000000E+003 +0.263150000000000E+003 +0.273143384580264E+003 +0.287132342597367E+003 +0.291518684956298E+003 +0.287192907057118E+003 +0.273120436255964E+003 +0.263150000000000E+003 +0.263150000000000E+003 +0.263150000000000E+003 +0.263150000000000E+003 +0.263150000000000E+003 +0.263150000000000E+003 +0.263150000000000E+003 +0.263150000000000E+003 +0.263150000000000E+003 +0.263150000000000E+003 +0.263150000000000E+003 +0.263150000000000E+003 +0.263150000000000E+003 +0.263150000000000E+003 +0.263150000000000E+003 +0.263150000000000E+003 +0.263150000000000E+003 +0.263150000000000E+003 +0.263150000000000E+003 +0.276038572580220E+003 +0.286985932523656E+003 +0.291182702367702E+003 +0.287016207207341E+003 +0.273104835852581E+003 +0.276623037642891E+003 +0.275760423494822E+003 +0.276409736269771E+003 +0.275708405648991E+003 +0.276241477842649E+003 +0.276059841198055E+003 +0.277822466575077E+003 +0.290407128219984E+003 +0.290061384994831E+003 +0.276067337482405E+003 +0.277365487949220E+003 +0.277031107176236E+003 +0.276490747999379E+003 +0.276221401031685E+003 +0.276171884498427E+003 +0.276368760963214E+003 +0.276495865425799E+003 +0.282585786338461E+003 +0.276100618974854E+003 +0.276283885443915E+003 +0.287072884292599E+003 +0.287150384463958E+003 +0.291186662178586E+003 +0.291171249016306E+003 +0.291170171370808E+003 +0.287234247479384E+003 +0.287109104537081E+003 +0.287242454536434E+003 +0.291159948790659E+003 +0.287360169025492E+003 +0.291153430810967E+003 +0.287462246501117E+003 +0.291146676257863E+003 +0.287586409410702E+003 +0.291128406274957E+003 +0.287671608160790E+003 +0.291100470339734E+003 +0.286732168517985E+003 +0.287769370290792E+003 +0.291064031450642E+003 +0.287889944338185E+003 +0.291044700714179E+003 +0.287830301527854E+003 +0.291030246715635E+003 +0.287971084063098E+003 +0.290998110697573E+003 +0.288160839747718E+003 +0.290963521246634E+003 +0.286232309378717E+003 +0.288041619952350E+003 +0.290924484529547E+003 +0.288360999349958E+003 +0.290894759423884E+003 +0.288550146235610E+003 +0.290927353995156E+003 +0.288141884978968E+003 +0.277841196164081E+003 +0.277397505268997E+003 +0.287272044813599E+003 +0.276329272885490E+003 +0.286660659602560E+003 +0.275857296064364E+003 +0.276011515157378E+003 +0.287074033488618E+003 +0.276982812429231E+003 +0.276840232288011E+003 +0.276639102615371E+003 +0.276754102754720E+003 +0.276476875254058E+003 +0.276314338403384E+003 +0.276187347973071E+003 +0.275933299609842E+003 +0.287115133543044E+003 +0.290543423877283E+003 +0.276141929073255E+003 +0.291280084192167E+003 +0.275924130942557E+003 +0.275897760210540E+003 +0.287055795154543E+003 +0.291300548755745E+003 +0.282368381909220E+003 +0.286950360645650E+003 +0.282619064324796E+003 +0.286737160680277E+003 +0.275969236558143E+003 +0.275638921249190E+003 +0.286736485877006E+003 +0.286683812815141E+003 +0.286429813616652E+003 +0.286319119298869E+003 +0.286599343901377E+003 +0.275659623611057E+003 +0.285929936591247E+003 +0.286139802433772E+003 +0.285960626534930E+003 +0.277897965585157E+003 +0.287635386872711E+003 +0.290544456021361E+003 +0.286866394814011E+003 +0.270425222298276E+003 +0.270397865331689E+003 +0.270393425614293E+003 +0.287041315002583E+003
        </DataArray>
        <DataArray type="Float64" NumberOfComponents="1" Name="R__Res" format="ascii">
            0.000000000000000E+000  0.000000000000000E+000  0.000000000000000E+000  0.000000000000000E+000  0.000000000000000E+000  0.000000000000000E+000  0.000000000000000E+000  0.000000000000000E+000  0.000000000000000E+000  0.000000000000000E+000  0.000000000000000E+000  0.000000000000000E+000  0.000000000000000E+000  0.000000000000000E+000  0.000000000000000E+000  0.000000000000000E+000  0.000000000000000E+000  0.000000000000000E+000  0.000000000000000E+000  0.000000000000000E+000  0.000000000000000E+000  0.000000000000000E+000  0.000000000000000E+000 -0.458869880288041E-001 +0.470581706935036E-008 +0.478388745284164E-008 +0.459259802410017E-008 +0.693963739165322E-001  0.000000000000000E+000  0.000000000000000E+000  0.000000000000000E+000  0.000000000000000E+000  0.000000000000000E+000  0.000000000000000E+000  0.000000000000000E+000  0.000000000000000E+000  0.000000000000000E+000  0.000000000000000E+000  0.000000000000000E+000  0.000000000000000E+000  0.000000000000000E+000  0.000000000000000E+000  0.000000000000000E+000  0.000000000000000E+000  0.000000000000000E+000  0.000000000000000E+000  0.000000000000000E+000 -0.293464703269919E-001 +0.489123141989012E-008 +0.403773450785572E-008 +0.804131583542755E-008 +0.709415763600707E-001 -0.164808506123826E+000 -0.180230839819325E+000 -0.168752364271947E+000 -0.181868979168348E+000 -0.171355169926210E+000 -0.175082564612174E+000 -0.155195145565763E+000 +0.879217065818949E-008 +0.805502997636154E-008 -0.174949363852237E+000 -0.151972213094425E+000 -0.158624041322314E+000 -0.167188626521954E+000 -0.170606546763411E+000 -0.172316367915469E+000 -0.182143874226683E+000 -0.156973685763996E+000 -0.594647041977936E-002 -0.241451335845949E+000 -0.182962556939566E+000 +0.210589856664001E-008 +0.125606842704684E-007 +0.123256601591848E-007 +0.119611783810925E-007 +0.122166373683896E-007 +0.975809011372064E-008 +0.854557580254323E-008 +0.580581538400793E-008 +0.663265042888384E-008 +0.110107831741146E-007 +0.866397331655833E-008 +0.104093937913774E-007 +0.189866486977053E-007 +0.485708917530303E-008 +0.111218311782402E-007 +0.111029616611802E-007 +0.146531433098396E-007 +0.219602536155605E-007 +0.136134821193679E-007 +0.123451726619095E-007 +0.864511195963757E-008 +0.219130766865305E-007 +0.102584680750084E-007 +0.942868999542767E-008 +0.107726063625080E-007 +0.137634248442708E-007 +0.159493696028079E-007 +0.108567265177939E-007 +0.107554720685243E-007 +0.850934456231300E-008 +0.176400484219741E-007 +0.487277929117624E-008 +0.306241041414523E-007 +0.235081176747087E-008 +0.991461845956110E-008 +0.100345702858107E-007 -0.140408057529034E+000 -0.151573684789795E+000 +0.267435318335174E-008 -0.168915155946600E+000 +0.585813664244483E-008 -0.238448586420035E+000 -0.173954926062600E+000 +0.741203631804410E-008 -0.157156315085157E+000 -0.161113639768741E+000 -0.165167548759629E+000 -0.161498596156946E+000 -0.167781471271732E+000 -0.170587743643682E+000 -0.172825196208955E+000 -0.176985304415560E+000 +0.189319107057884E-007 +0.912598996372083E-008 -0.172584835707003E+000 +0.203191612424547E-007 -0.186742542104708E+000 -0.177105510726553E+000 -0.389325369720694E-007 +0.387976067939277E-008 +0.656835457855642E-002 -0.118303693508182E-007 +0.612141403229804E-002 -0.197284242275941E-007 -0.176502232140328E+000 -0.182714231502375E+000 -0.350545943383906E-007 -0.470917109751667E-007 +0.145773642046265E-007 +0.662133325946002E-008 -0.219489053598920E-007 -0.181418707690733E+000 -0.144314393768497E-007 +0.312851451411689E-007 +0.593814990512698E-007 -0.123858888638910E+000 +0.834471725053021E-008 +0.141409616238874E-007 -0.340521590924681E-007 +0.110595284048659E+000 +0.153456135665381E+000 +0.159654306083598E+000 +0.275321095921655E-007
        </DataArray>
      </PointData>
    </Piece>
  </UnstructuredGrid>
</VTKFile>
