<?xml version="1.0"?>
<VTKFile type="UnstructuredGrid" version="1.0" byte_order="LittleEndian">
  <UnstructuredGrid>
    <Piece NumberOfPoints="+155" NumberOfCells="+256">
      <Points>
        <DataArray type="Float64" NumberOfComponents="3" Name="Points" format="ascii">
           0.000000000000000E+000  0.000000000000000E+000  0.000000000000000E+000+0.100000000000000E+000  0.000000000000000E+000  0.000000000000000E+000+0.100000000000000E+000 +0.260000000000000E-001  0.000000000000000E+000 0.000000000000000E+000 +0.260000000000000E-001  0.000000000000000E+000+0.499999999999030E-002  0.000000000000000E+000  0.000000000000000E+000+0.999999999998248E-002  0.000000000000000E+000  0.000000000000000E+000+0.149999999999717E-001  0.000000000000000E+000  0.000000000000000E+000+0.199999999999560E-001  0.000000000000000E+000  0.000000000000000E+000+0.249999999999416E-001  0.000000000000000E+000  0.000000000000000E+000+0.299999999999273E-001  0.000000000000000E+000  0.000000000000000E+000+0.349999999999129E-001  0.000000000000000E+000  0.000000000000000E+000+0.399999999998958E-001  0.000000000000000E+000  0.000000000000000E+000+0.449999999998815E-001  0.000000000000000E+000  0.000000000000000E+000+0.499999999998685E-001  0.000000000000000E+000  0.000000000000000E+000+0.549999999998802E-001  0.000000000000000E+000  0.000000000000000E+000+0.599999999998943E-001  0.000000000000000E+000  0.000000000000000E+000+0.649999999999086E-001  0.000000000000000E+000  0.000000000000000E+000+0.699999999999197E-001  0.000000000000000E+000  0.000000000000000E+000+0.749999999999336E-001  0.000000000000000E+000  0.000000000000000E+000+0.799999999999474E-001  0.000000000000000E+000  0.000000000000000E+000+0.849999999999585E-001  0.000000000000000E+000  0.000000000000000E+000+0.899999999999729E-001  0.000000000000000E+000  0.000000000000000E+000+0.949999999999878E-001  0.000000000000000E+000  0.000000000000000E+000+0.100000000000000E+000 +0.433333333332438E-002  0.000000000000000E+000+0.100000000000000E+000 +0.866666666664460E-002  0.000000000000000E+000+0.100000000000000E+000 +0.129999999999662E-001  0.000000000000000E+000+0.100000000000000E+000 +0.173333333333106E-001  0.000000000000000E+000+0.100000000000000E+000 +0.216666666666560E-001  0.000000000000000E+000+0.950000000000138E-001 +0.260000000000000E-001  0.000000000000000E+000+0.900000000000276E-001 +0.260000000000000E-001  0.000000000000000E+000+0.850000000000415E-001 +0.260000000000000E-001  0.000000000000000E+000+0.800000000000553E-001 +0.260000000000000E-001  0.000000000000000E+000+0.750000000000691E-001 +0.260000000000000E-001  0.000000000000000E+000+0.700000000000829E-001 +0.260000000000000E-001  0.000000000000000E+000+0.650000000000968E-001 +0.260000000000000E-001  0.000000000000000E+000+0.600000000001106E-001 +0.260000000000000E-001  0.000000000000000E+000+0.550000000001244E-001 +0.260000000000000E-001  0.000000000000000E+000+0.500000000001369E-001 +0.260000000000000E-001  0.000000000000000E+000+0.450000000001247E-001 +0.260000000000000E-001  0.000000000000000E+000+0.400000000001100E-001 +0.260000000000000E-001  0.000000000000000E+000+0.350000000000951E-001 +0.260000000000000E-001  0.000000000000000E+000+0.300000000000835E-001 +0.260000000000000E-001  0.000000000000000E+000+0.250000000000691E-001 +0.260000000000000E-001  0.000000000000000E+000+0.200000000000548E-001 +0.260000000000000E-001  0.000000000000000E+000+0.150000000000431E-001 +0.260000000000000E-001  0.000000000000000E+000+0.100000000000282E-001 +0.260000000000000E-001  0.000000000000000E+000+0.500000000001274E-002 +0.260000000000000E-001  0.000000000000000E+000 0.000000000000000E+000 +0.216666666666761E-001  0.000000000000000E+000 0.000000000000000E+000 +0.173333333333561E-001  0.000000000000000E+000 0.000000000000000E+000 +0.130000000000335E-001  0.000000000000000E+000 0.000000000000000E+000 +0.866666666668923E-002  0.000000000000000E+000 0.000000000000000E+000 +0.433333333334393E-002  0.000000000000000E+000+0.474770501596061E-001 +0.449457555865549E-002  0.000000000000000E+000+0.624137095822587E-001 +0.218639104185592E-001  0.000000000000000E+000+0.274710820211137E-001 +0.439781066491993E-002  0.000000000000000E+000+0.775162404499768E-001 +0.218822875726493E-001  0.000000000000000E+000+0.175000000000489E-001 +0.216698729810677E-001  0.000000000000000E+000+0.374049377742800E-001 +0.217454153049271E-001  0.000000000000000E+000+0.873299162642599E-001 +0.493503711796043E-002  0.000000000000000E+000+0.962472232502677E-001 +0.151666666666384E-001  0.000000000000000E+000+0.361092965627013E-002 +0.107352657633569E-001  0.000000000000000E+000+0.524222487305538E-001 +0.217494710322139E-001  0.000000000000000E+000+0.724471979965309E-001 +0.480286472974082E-002  0.000000000000000E+000+0.574556233588582E-001 +0.465234046326982E-002  0.000000000000000E+000+0.374775082418216E-001 +0.443588749052796E-002  0.000000000000000E+000+0.174620748440649E-001 +0.432604372433973E-002  0.000000000000000E+000+0.274069445303662E-001 +0.216995189535168E-001  0.000000000000000E+000+0.875000000000345E-001 +0.216698729810898E-001  0.000000000000000E+000+0.768509429014877E-002 +0.215379337211246E-001  0.000000000000000E+000+0.963904321494850E-001 +0.661398939465712E-002  0.000000000000000E+000+0.727642177052906E-002 +0.443011470774208E-002  0.000000000000000E+000+0.124449834836647E-001 +0.431291926454894E-002  0.000000000000000E+000+0.149241258378327E-001 +0.860791945987163E-002  0.000000000000000E+000+0.199074884808963E-001 +0.868183890874860E-002  0.000000000000000E+000+0.173445817427756E-001 +0.129363585197896E-001  0.000000000000000E+000+0.223149927841523E-001 +0.130318645013867E-001  0.000000000000000E+000+0.124626594021863E-001 +0.128806353569139E-001  0.000000000000000E+000+0.148978737522776E-001 +0.172549170089808E-001  0.000000000000000E+000+0.100477085488613E-001 +0.173020481200621E-001  0.000000000000000E+000+0.248943288561033E-001 +0.874693478464290E-002  0.000000000000000E+000+0.273027333778438E-001 +0.131023208673426E-001  0.000000000000000E+000+0.298881968642471E-001 +0.882634524946797E-002  0.000000000000000E+000+0.322939746294813E-001 +0.132008562712349E-001  0.000000000000000E+000+0.348859478408316E-001 +0.889254633445792E-002  0.000000000000000E+000+0.372904969874290E-001 +0.132949678594278E-001  0.000000000000000E+000+0.398845499064174E-001 +0.897728704381017E-002  0.000000000000000E+000+0.422917602893396E-001 +0.133530215891990E-001  0.000000000000000E+000+0.448841050044180E-001 +0.904101635819934E-002  0.000000000000000E+000+0.472915329690292E-001 +0.134187777030845E-001  0.000000000000000E+000+0.448528380708523E-001 +0.175735435605107E-001  0.000000000000000E+000+0.498836917835918E-001 +0.911991320375936E-002  0.000000000000000E+000+0.522874069975051E-001 +0.135507216540452E-001  0.000000000000000E+000+0.548790812949033E-001 +0.921149949688830E-002  0.000000000000000E+000+0.572863231540567E-001 +0.136388959671376E-001  0.000000000000000E+000+0.598790589316415E-001 +0.918407375678816E-002  0.000000000000000E+000+0.623590312841999E-001 +0.136161871876397E-001  0.000000000000000E+000+0.648882846946340E-001 +0.929768835114423E-002  0.000000000000000E+000+0.673708037938968E-001 +0.137654412938815E-001  0.000000000000000E+000+0.698815075929149E-001 +0.944835648181582E-002  0.000000000000000E+000+0.723006618538128E-001 +0.138184730749027E-001  0.000000000000000E+000+0.699048578930071E-001 +0.178446291117357E-001  0.000000000000000E+000+0.748765735527623E-001 +0.937460219893974E-002  0.000000000000000E+000+0.773169545123332E-001 +0.138727132318244E-001  0.000000000000000E+000+0.798463307594286E-001 +0.960013646147148E-002  0.000000000000000E+000+0.823528893119287E-001 +0.139299421283865E-001  0.000000000000000E+000+0.847816044956594E-001 +0.970343309172691E-002  0.000000000000000E+000+0.872193013720580E-001 +0.140356141943716E-001  0.000000000000000E+000+0.894050078821107E-001 +0.926570675087459E-002  0.000000000000000E+000+0.824082332243445E-001 +0.499899823812024E-002  0.000000000000000E+000+0.674500068614159E-001 +0.480706579594959E-002  0.000000000000000E+000+0.102343281449715E-001 +0.864992134013922E-002  0.000000000000000E+000+0.125217794319013E-001 +0.216274619718725E-001  0.000000000000000E+000+0.530727028577484E-002 +0.174243678533301E-001  0.000000000000000E+000+0.927072212021592E-001 +0.216524795078309E-001  0.000000000000000E+000+0.825446721529249E-001 +0.217623324626207E-001  0.000000000000000E+000+0.248287209997012E-001 +0.173700977842713E-001  0.000000000000000E+000+0.774559974953847E-001 +0.467369623047021E-002  0.000000000000000E+000+0.524492410994514E-001 +0.457972145376216E-002  0.000000000000000E+000+0.424538688853401E-001 +0.449146107519883E-002  0.000000000000000E+000+0.624631306950981E-001 +0.456708086287553E-002  0.000000000000000E+000+0.324537891613090E-001 +0.442543162322896E-002  0.000000000000000E+000+0.224558290336793E-001 +0.435877134710853E-002  0.000000000000000E+000+0.323740723540678E-001 +0.216972078724282E-001  0.000000000000000E+000+0.573773859284986E-001 +0.217991888252024E-001  0.000000000000000E+000+0.198976948798363E-001 +0.173400626964691E-001  0.000000000000000E+000+0.962582298363988E-001 +0.110362954798282E-001  0.000000000000000E+000+0.224563524297887E-001 +0.217077368256298E-001  0.000000000000000E+000+0.921069635138181E-001 +0.135809272238655E-001  0.000000000000000E+000+0.923858042830145E-001 +0.440245293971425E-002  0.000000000000000E+000+0.474148725805479E-001 +0.218043592700527E-001  0.000000000000000E+000+0.297698604248976E-001 +0.173792298551515E-001  0.000000000000000E+000+0.734871392924924E-002 +0.128570511094810E-001  0.000000000000000E+000+0.363766117527133E-002 +0.655253480415738E-002  0.000000000000000E+000+0.347814593749260E-001 +0.174396077677385E-001  0.000000000000000E+000+0.964468684680814E-001 +0.193951920109048E-001  0.000000000000000E+000+0.398535820828240E-001 +0.175636784640132E-001  0.000000000000000E+000+0.424210384181232E-001 +0.217811660999173E-001  0.000000000
[...]
      <PointData>
        <DataArray type="Float64" NumberOfComponents="1" Name="T__TempConverged" format="ascii">
           +0.263150000000000E+003 +0.263150000000000E+003 +0.263150000000000E+003 +0.263150000000000E+003 +0.263150000000000E+003 +0.263150000000000E+003 +0.263150000000000E+003 +0.263150000000000E+003 +0.263150000000000E+003 +0.263150000000000E+003 +0.263150000000000E+003 +0.263150000000000E+003 +0.263150000000000E+003 +0.263150000000000E+003 +0.263150000000000E+003 +0.263150000000000E+003 +0.263150000000000E+003 +0.263150000000000E+003 +0.263150000000000E+003 +0.263150000000000E+003 +0.263150000000000E+003 +0.263150000000000E+003 +0.263150000000000E+003 +0.289896204506481E+003 +0.300197315848832E+003 +0.300328593640860E+003 +0.300202494999824E+003 +0.289865832275684E+003 +0.263150000000000E+003 +0.263150000000000E+003 +0.263150000000000E+003 +0.263150000000000E+003 +0.263150000000000E+003 +0.263150000000000E+003 +0.263150000000000E+003 +0.263150000000000E+003 +0.263150000000000E+003 +0.263150000000000E+003 +0.263150000000000E+003 +0.263150000000000E+003 +0.263150000000000E+003 +0.263150000000000E+003 +0.263150000000000E+003 +0.263150000000000E+003 +0.263150000000000E+003 +0.263150000000000E+003 +0.263150000000000E+003 +0.287441982616243E+003 +0.299849393322801E+003 +0.300415947749566E+003 +0.300198133280904E+003 +0.289855214683286E+003 +0.288344275204306E+003 +0.287073386744818E+003 +0.288020123846912E+003 +0.286984989969676E+003 +0.287788184196199E+003 +0.287526215109873E+003 +0.289705999744111E+003 +0.300379597597524E+003 +0.300395049809370E+003 +0.287505572333220E+003 +0.289296026569344E+003 +0.288862523630276E+003 +0.288152429380053E+003 +0.287761931765153E+003 +0.287678714255559E+003 +0.287711010952358E+003 +0.287949902764040E+003 +0.297289330192721E+003 +0.288369169284898E+003 +0.287703148633598E+003 +0.299753964926643E+003 +0.299793378091478E+003 +0.300660714251672E+003 +0.300655912822071E+003 +0.300665449034089E+003 +0.299877389485725E+003 +0.299719696177004E+003 +0.299835061052516E+003 +0.300654518904863E+003 +0.299885860811313E+003 +0.300653756731310E+003 +0.299940339385317E+003 +0.300654312878703E+003 +0.299992725266860E+003 +0.300655162289595E+003 +0.300032990277331E+003 +0.300655716023595E+003 +0.299622024178792E+003 +0.300061785748746E+003 +0.300645278647871E+003 +0.300109342331609E+003 +0.300643822149254E+003 +0.300056488335818E+003 +0.300649582182174E+003 +0.300101678467917E+003 +0.300643780899396E+003 +0.300175917599721E+003 +0.300644174127597E+003 +0.299366342006097E+003 +0.300108459532903E+003 +0.300645377609135E+003 +0.300256361614921E+003 +0.300619768619719E+003 +0.300329922250307E+003 +0.300609450035288E+003 +0.300189434846137E+003 +0.289879954062435E+003 +0.289327818269295E+003 +0.299884497417900E+003 +0.287873214510168E+003 +0.299128355635577E+003 +0.288032325160776E+003 +0.287373269002308E+003 +0.299774696011918E+003 +0.288827805208869E+003 +0.288623558288440E+003 +0.288349925723207E+003 +0.288527538139974E+003 +0.288118934905884E+003 +0.287883099368179E+003 +0.287699390872975E+003 +0.287332115621386E+003 +0.299790742929523E+003 +0.300417033650983E+003 +0.287644420633819E+003 +0.300509582419628E+003 +0.288240353884933E+003 +0.287292250059652E+003 +0.299761913873434E+003 +0.300563920101075E+003 +0.297089156146430E+003 +0.299711785370851E+003 +0.297296923284875E+003 +0.299594446357942E+003 +0.287387817446213E+003 +0.286897636210630E+003 +0.299617838954600E+003 +0.299562463296419E+003 +0.299444166872619E+003 +0.299415466686634E+003 +0.299473546819858E+003 +0.286934842253855E+003 +0.299012425619195E+003 +0.299330492793373E+003 +0.299138511716119E+003 +0.289898769038114E+003 +0.299748229082020E+003 +0.300367397371300E+003 +0.299401554934336E+003 +0.282081243406411E+003 +0.282032724891029E+003 +0.282024853339182E+003 +0.299527189399783E+003
        </DataArray>
        <DataArray type="Float64" NumberOfComponents="1" Name="R__Res" format="ascii">
            0.000000000000000E+000  0.000000000000000E+000  0.000000000000000E+000  0.000000000000000E+000  0.000000000000000E+000  0.000000000000000E+000  0.000000000000000E+000  0.000000000000000E+000  0.000000000000000E+000  0.000000000000000E+000  0.000000000000000E+000  0.000000000000000E+000  0.000000000000000E+000  0.000000000000000E+000  0.000000000000000E+000  0.000000000000000E+000  0.000000000000000E+000  0.000000000000000E+000  0.000000000000000E+000  0.000000000000000E+000  0.000000000000000E+000  0.000000000000000E+000  0.000000000000000E+000 -0.135848624359074E-001 -0.475617989437183E-009 +0.764675822662042E-011 -0.464248306464299E-009 -0.131454930640547E-001  0.000000000000000E+000  0.000000000000000E+000  0.000000000000000E+000  0.000000000000000E+000  0.000000000000000E+000  0.000000000000000E+000  0.000000000000000E+000  0.000000000000000E+000  0.000000000000000E+000  0.000000000000000E+000  0.000000000000000E+000  0.000000000000000E+000  0.000000000000000E+000  0.000000000000000E+000  0.000000000000000E+000  0.000000000000000E+000  0.000000000000000E+000  0.000000000000000E+000  0.000000000000000E+000 -0.112597060362400E-001 -0.765244145828348E-009 -0.198494137793048E-010 -0.470789685014239E-009 -0.131945209093134E-001 -0.324666274807832E-001 -0.435257152993520E-001 -0.353115334581382E-001 -0.445859021331056E-001 -0.371196360839349E-001 -0.396225390575542E-001 -0.235702562975182E-001 -0.218394254070109E-009 -0.223460149689769E-009 -0.398410591798788E-001 -0.259123581253995E-001 -0.292068873746238E-001 -0.341017850432479E-001 -0.373813542149755E-001 -0.378555776573215E-001 -0.380009029255661E-001 -0.297178688427726E-001 -0.137786893006364E-007 -0.337737070229240E-001 -0.378967421389245E-001 +0.207180324007794E-007 -0.175049915673853E-007 -0.803589877973465E-008 -0.188844898052487E-009 -0.778124553679760E-008 -0.135217026464574E-008 -0.150074026539215E-007 -0.446772729922884E-009 -0.253267955011016E-007 -0.186610205066273E-008 +0.304574535037183E-008 -0.132772837169171E-008 -0.826879335835695E-009 -0.875570205227660E-008 -0.634283653377921E-009 +0.311705328215339E-008 -0.834470513522145E-009 -0.409447379334793E-007 -0.164061171314955E-007 +0.533877123065629E-008 -0.310401370162694E-007 -0.233248142397779E-007 -0.104919537502468E-007 +0.715302297948917E-008 -0.122742127572906E-008 -0.345291324699293E-008 -0.679794343039219E-008 +0.450272319429956E-008 +0.700964220001765E-008 -0.116343756850767E-008 -0.968818084090550E-008 -0.346270494500089E-007 -0.126751686091442E-007 -0.598508453908408E-008 +0.217330817231520E-008 -0.110794334817754E-008 -0.222089610713221E-001 -0.259328453639487E-001 +0.225396618036555E-008 -0.358755744754031E-001 -0.208390240619138E-007 -0.359829989103062E-001 -0.402304842301549E-001 -0.372322395136848E-009 -0.276789622499685E-001 -0.304772541218234E-001 -0.328506420092953E-001 -0.302788280926727E-001 -0.345749542978417E-001 -0.364498613249298E-001 -0.381581372517097E-001 -0.411800471609487E-001 +0.586499293575571E-008 -0.211551977324920E-009 -0.379432585257682E-001 +0.490652315998652E-008 -0.335699002409564E-001 -0.412537417281653E-001 -0.285835521918187E-007 -0.383529943082106E-007 +0.749374562403204E-008 +0.508702691082163E-008 +0.389115979437804E-007 +0.412777823033394E-008 -0.406804335025743E-001 -0.454083741313163E-001 -0.462890948904615E-007 +0.206503235622435E-007 +0.218997753265171E-007 +0.696056035032200E-008 +0.329219875805364E-007 -0.444982061804451E-001 +0.122131667001923E-007 -0.236424688715431E-007 +0.235175072749172E-007 -0.182630730119677E-001 +0.390257748339451E-008 -0.640651590805286E-009 -0.234070597349145E-007 -0.558463178945905E-001 -0.537223064804433E-001 -0.543252427555965E-001 +0.436938896175576E-008
        </DataArray>
      </PointData>
    </Piece>
  </UnstructuredGrid>
</VTKFile>
