<?xml version="1.0"?>
<VTKFile type="UnstructuredGrid" version="1.0" byte_order="LittleEndian">
  <UnstructuredGrid>
    <Piece NumberOfPoints="+155" NumberOfCells="+256">
      <Points>
        <DataArray type="Float64" NumberOfComponents="3" Name="Points" format="ascii">
           0.000000000000000E+000  0.000000000000000E+000  0.000000000000000E+000+0.100000000000000E+000  0.000000000000000E+000  0.000000000000000E+000+0.100000000000000E+000 +0.260000000000000E-001  0.000000000000000E+000 0.000000000000000E+000 +0.260000000000000E-001  0.000000000000000E+000+0.499999999999030E-002  0.000000000000000E+000  0.000000000000000E+000+0.999999999998248E-002  0.000000000000000E+000  0.000000000000000E+000+0.149999999999717E-001  0.000000000000000E+000  0.000000000000000E+000+0.199999999999560E-001  0.000000000000000E+000  0.000000000000000E+000+0.249999999999416E-001  0.000000000000000E+000  0.000000000000000E+000+0.299999999999273E-001  0.000000000000000E+000  0.000000000000000E+000+0.349999999999129E-001  0.000000000000000E+000  0.000000000000000E+000+0.399999999998958E-001  0.000000000000000E+000  0.000000000000000E+000+0.449999999998815E-001  0.000000000000000E+000  0.000000000000000E+000+0.499999999998685E-001  0.000000000000000E+000  0.000000000000000E+000+0.549999999998802E-001  0.000000000000000E+000  0.000000000000000E+000+0.599999999998943E-001  0.000000000000000E+000  0.000000000000000E+000+0.649999999999086E-001  0.000000000000000E+000  0.000000000000000E+000+0.699999999999197E-001  0.000000000000000E+000  0.000000000000000E+000+0.749999999999336E-001  0.000000000000000E+000  0.000000000000000E+000+0.799999999999474E-001  0.000000000000000E+000  0.000000000000000E+000+0.849999999999585E-001  0.000000000000000E+000  0.000000000000000E+000+0.899999999999729E-001  0.000000000000000E+000  0.000000000000000E+000+0.949999999999878E-001  0.000000000000000E+000  0.000000000000000E+000+0.100000000000000E+000 +0.433333333332438E-002  0.000000000000000E+000+0.100000000000000E+000 +0.866666666664460E-002  0.000000000000000E+000+0.100000000000000E+000 +0.129999999999662E-001  0.000000000000000E+000+0.100000000000000E+000 +0.173333333333106E-001  0.000000000000000E+000+0.100000000000000E+000 +0.216666666666560E-001  0.000000000000000E+000+0.950000000000138E-001 +0.260000000000000E-001  0.000000000000000E+000+0.900000000000276E-001 +0.260000000000000E-001  0.000000000000000E+000+0.850000000000415E-001 +0.260000000000000E-001  0.000000000000000E+000+0.800000000000553E-001 +0.260000000000000E-001  0.000000000000000E+000+0.750000000000691E-001 +0.260000000000000E-001  0.000000000000000E+000+0.700000000000829E-001 +0.260000000000000E-001  0.000000000000000E+000+0.650000000000968E-001 +0.260000000000000E-001  0.000000000000000E+000+0.600000000001106E-001 +0.260000000000000E-001  0.000000000000000E+000+0.550000000001244E-001 +0.260000000000000E-001  0.000000000000000E+000+0.500000000001369E-001 +0.260000000000000E-001  0.000000000000000E+000+0.450000000001247E-001 +0.260000000000000E-001  0.000000000000000E+000+0.400000000001100E-001 +0.260000000000000E-001  0.000000000000000E+000+0.350000000000951E-001 +0.260000000000000E-001  0.000000000000000E+000+0.300000000000835E-001 +0.260000000000000E-001  0.000000000000000E+000+0.250000000000691E-001 +0.260000000000000E-001  0.000000000000000E+000+0.200000000000548E-001 +0.260000000000000E-001  0.000000000000000E+000+0.150000000000431E-001 +0.260000000000000E-001  0.000000000000000E+000+0.100000000000282E-001 +0.260000000000000E-001  0.000000000000000E+000+0.500000000001274E-002 +0.260000000000000E-001  0.000000000000000E+000 0.000000000000000E+000 +0.216666666666761E-001  0.000000000000000E+000 0.000000000000000E+000 +0.173333333333561E-001  0.000000000000000E+000 0.000000000000000E+000 +0.130000000000335E-001  0.000000000000000E+000 0.000000000000000E+000 +0.866666666668923E-002  0.000000000000000E+000 0.000000000000000E+000 +0.433333333334393E-002  0.000000000000000E+000+0.474770501596061E-001 +0.449457555865549E-002  0.000000000000000E+000+0.624137095822587E-001 +0.218639104185592E-001  0.000000000000000E+000+0.274710820211137E-001 +0.439781066491993E-002  0.000000000000000E+000+0.775162404499768E-001 +0.218822875726493E-001  0.000000000000000E+000+0.175000000000489E-001 +0.216698729810677E-001  0.000000000000000E+000+0.374049377742800E-001 +0.217454153049271E-001  0.000000000000000E+000+0.873299162642599E-001 +0.493503711796043E-002  0.000000000000000E+000+0.962472232502677E-001 +0.151666666666384E-001  0.000000000000000E+000+0.361092965627013E-002 +0.107352657633569E-001  0.000000000000000E+000+0.524222487305538E-001 +0.217494710322139E-001  0.000000000000000E+000+0.724471979965309E-001 +0.480286472974082E-002  0.000000000000000E+000+0.574556233588582E-001 +0.465234046326982E-002  0.000000000000000E+000+0.374775082418216E-001 +0.443588749052796E-002  0.000000000000000E+000+0.174620748440649E-001 +0.432604372433973E-002  0.000000000000000E+000+0.274069445303662E-001 +0.216995189535168E-001  0.000000000000000E+000+0.875000000000345E-001 +0.216698729810898E-001  0.000000000000000E+000+0.768509429014877E-002 +0.215379337211246E-001  0.000000000000000E+000+0.963904321494850E-001 +0.661398939465712E-002  0.000000000000000E+000+0.727642177052906E-002 +0.443011470774208E-002  0.000000000000000E+000+0.124449834836647E-001 +0.431291926454894E-002  0.000000000000000E+000+0.149241258378327E-001 +0.860791945987163E-002  0.000000000000000E+000+0.199074884808963E-001 +0.868183890874860E-002  0.000000000000000E+000+0.173445817427756E-001 +0.129363585197896E-001  0.000000000000000E+000+0.223149927841523E-001 +0.130318645013867E-001  0.000000000000000E+000+0.124626594021863E-001 +0.128806353569139E-001  0.000000000000000E+000+0.148978737522776E-001 +0.172549170089808E-001  0.000000000000000E+000+0.100477085488613E-001 +0.173020481200621E-001  0.000000000000000E+000+0.248943288561033E-001 +0.874693478464290E-002  0.000000000000000E+000+0.273027333778438E-001 +0.131023208673426E-001  0.000000000000000E+000+0.298881968642471E-001 +0.882634524946797E-002  0.000000000000000E+000+0.322939746294813E-001 +0.132008562712349E-001  0.000000000000000E+000+0.348859478408316E-001 +0.889254633445792E-002  0.000000000000000E+000+0.372904969874290E-001 +0.132949678594278E-001  0.000000000000000E+000+0.398845499064174E-001 +0.897728704381017E-002  0.000000000000000E+000+0.422917602893396E-001 +0.133530215891990E-001  0.000000000000000E+000+0.448841050044180E-001 +0.904101635819934E-002  0.000000000000000E+000+0.472915329690292E-001 +0.134187777030845E-001  0.000000000000000E+000+0.448528380708523E-001 +0.175735435605107E-001  0.000000000000000E+000+0.498836917835918E-001 +0.911991320375936E-002  0.000000000000000E+000+0.522874069975051E-001 +0.135507216540452E-001  0.000000000000000E+000+0.548790812949033E-001 +0.921149949688830E-002  0.000000000000000E+000+0.572863231540567E-001 +0.136388959671376E-001  0.000000000000000E+000+0.598790589316415E-001 +0.918407375678816E-002  0.000000000000000E+000+0.623590312841999E-001 +0.136161871876397E-001  0.000000000000000E+000+0.648882846946340E-001 +0.929768835114423E-002  0.000000000000000E+000+0.673708037938968E-001 +0.137654412938815E-001  0.000000000000000E+000+0.698815075929149E-001 +0.944835648181582E-002  0.000000000000000E+000+0.723006618538128E-001 +0.138184730749027E-001  0.000000000000000E+000+0.699048578930071E-001 +0.178446291117357E-001  0.000000000000000E+000+0.748765735527623E-001 +0.937460219893974E-002  0.000000000000000E+000+0.773169545123332E-001 +0.138727132318244E-001  0.000000000000000E+000+0.798463307594286E-001 +0.960013646147148E-002  0.000000000000000E+000+0.823528893119287E-001 +0.139299421283865E-001  0.000000000000000E+000+0.847816044956594E-001 +0.970343309172691E-002  0.000000000000000E+000+0.872193013720580E-001 +0.140356141943716E-001  0.000000000000000E+000+0.894050078821107E-001 +0.926570675087459E-002  0.000000000000000E+000+0.824082332243445E-001 +0.499899823812024E-002  0.000000000000000E+000+0.674500068614159E-001 +0.480706579594959E-002  0.000000000000000E+000+0.102343281449715E-001 +0.864992134013922E-002  0.000000000000000E+000+0.125217794319013E-001 +0.216274619718725E-001  0.000000000000000E+000+0.530727028577484E-002 +0.174243678533301E-001  0.000000000000000E+000+0.927072212021592E-001 +0.216524795078309E-001  0.000000000000000E+000+0.825446721529249E-001 +0.217623324626207E-001  0.000000000000000E+000+0.248287209997012E-001 +0.173700977842713E-001  0.000000000000000E+000+0.774559974953847E-001 +0.467369623047021E-002  0.000000000000000E+000+0.524492410994514E-001 +0.457972145376216E-002  0.000000000000000E+000+0.424538688853401E-001 +0.449146107519883E-002  0.000000000000000E+000+0.624631306950981E-001 +0.456708086287553E-002  0.000000000000000E+000+0.324537891613090E-001 +0.442543162322896E-002  0.000000000000000E+000+0.224558290336793E-001 +0.435877134710853E-002  0.000000000000000E+000+0.323740723540678E-001 +0.216972078724282E-001  0.000000000000000E+000+0.573773859284986E-001 +0.217991888252024E-001  0.000000000000000E+000+0.198976948798363E-001 +0.173400626964691E-001  0.000000000000000E+000+0.962582298363988E-001 +0.110362954798282E-001  0.000000000000000E+000+0.224563524297887E-001 +0.217077368256298E-001  0.000000000000000E+000+0.921069635138181E-001 +0.135809272238655E-001  0.000000000000000E+000+0.923858042830145E-001 +0.440245293971425E-002  0.000000000000000E+000+0.474148725805479E-001 +0.218043592700527E-001  0.000000000000000E+000+0.297698604248976E-001 +0.173792298551515E-001  0.000000000000000E+000+0.734871392924924E-002 +0.128570511094810E-001  0.000000000000000E+000+0.363766117527133E-002 +0.655253480415738E-002  0.000000000000000E+000+0.347814593749260E-001 +0.174396077677385E-001  0.000000000000000E+000+0.964468684680814E-001 +0.193951920109048E-001  0.000000000000000E+000+0.398535820828240E-001 +0.175636784640132E-001  0.000000000000000E+000+0.424210384181232E-001 +0.217811660999173E-001  0.000000000
[...]
      <PointData>
        <DataArray type="Float64" NumberOfComponents="1" Name="T__TempConverged" format="ascii">
           +0.263150000000000E+003 +0.263150000000000E+003 +0.263150000000000E+003 +0.263150000000000E+003 +0.263150000000000E+003 +0.263150000000000E+003 +0.263150000000000E+003 +0.263150000000000E+003 +0.263150000000000E+003 +0.263150000000000E+003 +0.263150000000000E+003 +0.263150000000000E+003 +0.263150000000000E+003 +0.263150000000000E+003 +0.263150000000000E+003 +0.263150000000000E+003 +0.263150000000000E+003 +0.263150000000000E+003 +0.263150000000000E+003 +0.263150000000000E+003 +0.263150000000000E+003 +0.263150000000000E+003 +0.263150000000000E+003 +0.275050779153534E+003 +0.289129143408733E+003 +0.293191277440237E+003 +0.289199528232903E+003 +0.274843582081149E+003 +0.263150000000000E+003 +0.263150000000000E+003 +0.263150000000000E+003 +0.263150000000000E+003 +0.263150000000000E+003 +0.263150000000000E+003 +0.263150000000000E+003 +0.263150000000000E+003 +0.263150000000000E+003 +0.263150000000000E+003 +0.263150000000000E+003 +0.263150000000000E+003 +0.263150000000000E+003 +0.263150000000000E+003 +0.263150000000000E+003 +0.263150000000000E+003 +0.263150000000000E+003 +0.263150000000000E+003 +0.263150000000000E+003 +0.276624108703656E+003 +0.288447131168094E+003 +0.292887055530461E+003 +0.289042314823315E+003 +0.274816313466144E+003 +0.277351873989429E+003 +0.276463219035740E+003 +0.277132127650751E+003 +0.276407693610942E+003 +0.276960146076465E+003 +0.276772300665022E+003 +0.278507316693728E+003 +0.292045332979810E+003 +0.291716202242643E+003 +0.276779740428952E+003 +0.278101876905677E+003 +0.277763414568411E+003 +0.277215896140734E+003 +0.276945211718048E+003 +0.276888662932151E+003 +0.277025159682289E+003 +0.277235829905066E+003 +0.284328586495477E+003 +0.277274959596331E+003 +0.276944596671578E+003 +0.288561025342287E+003 +0.288655046531157E+003 +0.292935569224243E+003 +0.292920564762245E+003 +0.292910092939759E+003 +0.288741374105138E+003 +0.288603165968634E+003 +0.288750490922954E+003 +0.292908657919103E+003 +0.288874512896622E+003 +0.292901984473362E+003 +0.288982767864128E+003 +0.292895723766127E+003 +0.289113772910848E+003 +0.292877661042825E+003 +0.289204066666876E+003 +0.292849195320112E+003 +0.288218694588231E+003 +0.289307633264301E+003 +0.292811475787873E+003 +0.289433427337000E+003 +0.292792485651405E+003 +0.289371177563371E+003 +0.292779293023772E+003 +0.289520490954257E+003 +0.292748131856872E+003 +0.289720114589327E+003 +0.292713119257664E+003 +0.287698182000395E+003 +0.289594648893750E+003 +0.292670706840972E+003 +0.289935313811707E+003 +0.292634338770950E+003 +0.290119560627900E+003 +0.292650255004272E+003 +0.289676768956596E+003 +0.278586269972560E+003 +0.278132793171304E+003 +0.288785436943478E+003 +0.277049198818335E+003 +0.288105963244842E+003 +0.277032041811748E+003 +0.276729798959210E+003 +0.288576087241182E+003 +0.277724857006044E+003 +0.277572626250369E+003 +0.277366403561661E+003 +0.277489810535689E+003 +0.277200716518379E+003 +0.277033365937911E+003 +0.276903338323069E+003 +0.276642519462491E+003 +0.288618847932369E+003 +0.292159828455757E+003 +0.276858503821633E+003 +0.292982003023284E+003 +0.277116031833244E+003 +0.276606019182035E+003 +0.288556006035548E+003 +0.293026023913063E+003 +0.284114290777187E+003 +0.288445160737396E+003 +0.284360781109195E+003 +0.288221260317818E+003 +0.276679269932529E+003 +0.276337399607734E+003 +0.288222633302870E+003 +0.288166365868792E+003 +0.287900837461027E+003 +0.287787840909937E+003 +0.288070807481290E+003 +0.276360651799660E+003 +0.287344537181568E+003 +0.287599810068853E+003 +0.287404057423927E+003 +0.278646136296651E+003 +0.289186507541447E+003 +0.292217696804056E+003 +0.288413470925113E+003 +0.271559315366501E+003 +0.271441595026085E+003 +0.271439067034218E+003 +0.288600301990225E+003
        </DataArray>
        <DataArray type="Float64" NumberOfComponents="1" Name="R__Res" format="ascii">
            0.000000000000000E+000  0.000000000000000E+000  0.000000000000000E+000  0.000000000000000E+000  0.000000000000000E+000  0.000000000000000E+000  0.000000000000000E+000  0.000000000000000E+000  0.000000000000000E+000  0.000000000000000E+000  0.000000000000000E+000  0.000000000000000E+000  0.000000000000000E+000  0.000000000000000E+000  0.000000000000000E+000  0.000000000000000E+000  0.000000000000000E+000  0.000000000000000E+000  0.000000000000000E+000  0.000000000000000E+000  0.000000000000000E+000  0.000000000000000E+000  0.000000000000000E+000 -0.158353443670125E-001 +0.267968730538470E-008 +0.234269148524646E-008 +0.266223992850811E-008 +0.177318220264711E-001  0.000000000000000E+000  0.000000000000000E+000  0.000000000000000E+000  0.000000000000000E+000  0.000000000000000E+000  0.000000000000000E+000  0.000000000000000E+000  0.000000000000000E+000  0.000000000000000E+000  0.000000000000000E+000  0.000000000000000E+000  0.000000000000000E+000  0.000000000000000E+000  0.000000000000000E+000  0.000000000000000E+000  0.000000000000000E+000  0.000000000000000E+000  0.000000000000000E+000  0.000000000000000E+000 -0.322436485995983E-001 +0.272039146764769E-008 +0.206369721311717E-008 +0.266636240864315E-008 +0.228151493653652E-001 -0.178103436978759E+000 -0.198397544409858E+000 -0.183149829770421E+000 -0.200370338639422E+000 -0.186679120371218E+000 -0.191557876252853E+000 -0.141789439463905E+000 +0.432082447598958E-008 +0.391023835533133E-008 -0.191186478102615E+000 -0.160514860185200E+000 -0.169111777433629E+000 -0.181194089091155E+000 -0.186904895222213E+000 -0.187966635466990E+000 -0.190895361556687E+000 -0.170299986124104E+000 +0.511615922048545E-001 -0.270935159005172E+000 -0.192287339164764E+000 -0.875097838637373E-008 +0.812637690472684E-008 +0.641559427805305E-008 +0.644438835628591E-008 +0.635965624606882E-008 +0.507864528209723E-008 +0.586189807805226E-008 +0.422061763316606E-008 +0.281031986570923E-008 +0.608571104621092E-008 +0.394214372256840E-008 +0.570313751779850E-008 +0.130000996634294E-007 +0.583790793484695E-009 +0.595809834802452E-008 +0.602991323539470E-008 +0.765758656484650E-008 +0.201123631082822E-007 +0.843146419349239E-008 +0.673545297313893E-008 +0.548148237911050E-008 +0.162995567043467E-007 +0.543810552144919E-008 +0.400345989692852E-008 +0.590315574200417E-008 +0.830204149870895E-008 +0.891466411800934E-008 +0.550234224849788E-008 +0.108215130190104E-007 +0.453016801849060E-008 +0.110395276253783E-007 +0.244495901302599E-008 +0.169704885699673E-007 +0.125501253833704E-008 +0.585682546905275E-008 +0.541454081570691E-008 -0.132921951568266E+000 -0.152073083483324E+000 +0.433116764675390E-009 -0.183409008080799E+000 +0.747570894077398E-008 -0.276946320266684E+000 -0.191388658857731E+000 +0.368346775303507E-008 -0.168961721059118E+000 -0.173022840488151E+000 -0.178189594364355E+000 -0.174545683243215E+000 -0.181781843666124E+000 -0.185440916465810E+000 -0.188456173560397E+000 -0.194084395106576E+000 +0.124719437000209E-007 +0.446486492222675E-008 -0.188440305686061E+000 +0.407532746438122E-007 -0.269746698265653E+000 -0.194467863710211E+000 -0.273018709862072E-007 +0.238278430320094E-008 +0.489234999771928E-001 -0.554618351245040E-008 +0.480742310693782E-001 -0.287271806342915E-007 -0.193467975490229E+000 -0.201675438901261E+000 -0.281899108500738E-007 -0.311949175380022E-007 +0.345239938859265E-007 +0.775849655632044E-007 -0.155883539409984E-007 -0.200107101537279E+000 +0.826731505476630E-008 -0.607484373915668E-008 -0.183116197760569E-007 -0.113992256457955E+000 +0.214724726887994E-007 +0.103436445519911E-007 -0.417219867543395E-007 +0.704828339138711E+000 +0.613292012501065E+000 +0.612856921056036E+000 +0.213477863719724E-007
        </DataArray>
      </PointData>
    </Piece>
  </UnstructuredGrid>
</VTKFile>
