<?xml version="1.0"?>
<VTKFile type="UnstructuredGrid" version="1.0" byte_order="LittleEndian">
  <UnstructuredGrid>
    <Piece NumberOfPoints="+513" NumberOfCells="+944">
      <Points>
        <DataArray type="Float64" NumberOfComponents="3" Name="Points" format="ascii">
           0.000000000000000E+000  0.000000000000000E+000  0.000000000000000E+000+0.100000000000000E+001  0.000000000000000E+000  0.000000000000000E+000+0.100000000000000E+001 +0.100000000000000E+001  0.000000000000000E+000 0.000000000000000E+000 +0.100000000000000E+001  0.000000000000000E+000+0.499999999998997E-001  0.000000000000000E+000  0.000000000000000E+000+0.999999999998147E-001  0.000000000000000E+000  0.000000000000000E+000+0.149999999999704E+000  0.000000000000000E+000  0.000000000000000E+000+0.199999999999558E+000  0.000000000000000E+000  0.000000000000000E+000+0.249999999999412E+000  0.000000000000000E+000  0.000000000000000E+000+0.299999999999266E+000  0.000000000000000E+000  0.000000000000000E+000+0.349999999999121E+000  0.000000000000000E+000  0.000000000000000E+000+0.399999999998975E+000  0.000000000000000E+000  0.000000000000000E+000+0.449999999998829E+000  0.000000000000000E+000  0.000000000000000E+000+0.499999999998694E+000  0.000000000000000E+000  0.000000000000000E+000+0.549999999998815E+000  0.000000000000000E+000  0.000000000000000E+000+0.599999999998947E+000  0.000000000000000E+000  0.000000000000000E+000+0.649999999999078E+000  0.000000000000000E+000  0.000000000000000E+000+0.699999999999210E+000  0.000000000000000E+000  0.000000000000000E+000+0.749999999999342E+000  0.000000000000000E+000  0.000000000000000E+000+0.799999999999473E+000  0.000000000000000E+000  0.000000000000000E+000+0.849999999999605E+000  0.000000000000000E+000  0.000000000000000E+000+0.899999999999737E+000  0.000000000000000E+000  0.000000000000000E+000+0.949999999999868E+000  0.000000000000000E+000  0.000000000000000E+000+0.100000000000000E+001 +0.499999999998997E-001  0.000000000000000E+000+0.100000000000000E+001 +0.999999999998147E-001  0.000000000000000E+000+0.100000000000000E+001 +0.149999999999704E+000  0.000000000000000E+000+0.100000000000000E+001 +0.199999999999558E+000  0.000000000000000E+000+0.100000000000000E+001 +0.249999999999412E+000  0.000000000000000E+000+0.100000000000000E+001 +0.299999999999266E+000  0.000000000000000E+000+0.100000000000000E+001 +0.349999999999121E+000  0.000000000000000E+000+0.100000000000000E+001 +0.399999999998975E+000  0.000000000000000E+000+0.100000000000000E+001 +0.449999999998829E+000  0.000000000000000E+000+0.100000000000000E+001 +0.499999999998694E+000  0.000000000000000E+000+0.100000000000000E+001 +0.549999999998815E+000  0.000000000000000E+000+0.100000000000000E+001 +0.599999999998947E+000  0.000000000000000E+000+0.100000000000000E+001 +0.649999999999078E+000  0.000000000000000E+000+0.100000000000000E+001 +0.699999999999210E+000  0.000000000000000E+000+0.100000000000000E+001 +0.749999999999342E+000  0.000000000000000E+000+0.100000000000000E+001 +0.799999999999473E+000  0.000000000000000E+000+0.100000000000000E+001 +0.849999999999605E+000  0.000000000000000E+000+0.100000000000000E+001 +0.899999999999737E+000  0.000000000000000E+000+0.100000000000000E+001 +0.949999999999868E+000  0.000000000000000E+000+0.949999999999792E+000 +0.100000000000000E+001  0.000000000000000E+000+0.899999999999584E+000 +0.100000000000000E+001  0.000000000000000E+000+0.849999999999653E+000 +0.100000000000000E+001  0.000000000000000E+000+0.800000000000000E+000 +0.100000000000000E+001  0.000000000000000E+000+0.750000000000347E+000 +0.100000000000000E+001  0.000000000000000E+000+0.700000000000693E+000 +0.100000000000000E+001  0.000000000000000E+000+0.650000000001040E+000 +0.100000000000000E+001  0.000000000000000E+000+0.600000000001387E+000 +0.100000000000000E+001  0.000000000000000E+000+0.550000000001734E+000 +0.100000000000000E+001  0.000000000000000E+000+0.500000000002059E+000 +0.100000000000000E+001  0.000000000000000E+000+0.450000000001872E+000 +0.100000000000000E+001  0.000000000000000E+000+0.400000000001664E+000 +0.100000000000000E+001  0.000000000000000E+000+0.350000000001456E+000 +0.100000000000000E+001  0.000000000000000E+000+0.300000000001248E+000 +0.100000000000000E+001  0.000000000000000E+000+0.250000000001040E+000 +0.100000000000000E+001  0.000000000000000E+000+0.200000000000832E+000 +0.100000000000000E+001  0.000000000000000E+000+0.150000000000624E+000 +0.100000000000000E+001  0.000000000000000E+000+0.100000000000416E+000 +0.100000000000000E+001  0.000000000000000E+000+0.500000000002080E-001 +0.100000000000000E+001  0.000000000000000E+000 0.000000000000000E+000 +0.949999999999792E+000  0.000000000000000E+000 0.000000000000000E+000 +0.899999999999584E+000  0.000000000000000E+000 0.000000000000000E+000 +0.849999999999653E+000  0.000000000000000E+000 0.000000000000000E+000 +0.800000000000000E+000  0.000000000000000E+000 0.000000000000000E+000 +0.750000000000347E+000  0.000000000000000E+000 0.000000000000000E+000 +0.700000000000693E+000  0.000000000000000E+000 0.000000000000000E+000 +0.650000000001040E+000  0.000000000000000E+000 0.000000000000000E+000 +0.600000000001387E+000  0.000000000000000E+000 0.000000000000000E+000 +0.550000000001734E+000  0.000000000000000E+000 0.000000000000000E+000 +0.500000000002059E+000  0.000000000000000E+000 0.000000000000000E+000 +0.450000000001872E+000  0.000000000000000E+000 0.000000000000000E+000 +0.400000000001664E+000  0.000000000000000E+000 0.000000000000000E+000 +0.350000000001456E+000  0.000000000000000E+000 0.000000000000000E+000 +0.300000000001248E+000  0.000000000000000E+000 0.000000000000000E+000 +0.250000000001040E+000  0.000000000000000E+000 0.000000000000000E+000 +0.200000000000832E+000  0.000000000000000E+000 0.000000000000000E+000 +0.150000000000624E+000  0.000000000000000E+000 0.000000000000000E+000 +0.100000000000416E+000  0.000000000000000E+000 0.000000000000000E+000 +0.500000000002080E-001  0.000000000000000E+000+0.475000000001966E+000 +0.956698729810838E+000  0.000000000000000E+000+0.504665642003871E-001 +0.477188279097240E+000  0.000000000000000E+000+0.524999999998755E+000 +0.433012701892158E-001  0.000000000000000E+000+0.966007580307915E+000 +0.523450264168670E+000  0.000000000000000E+000+0.433012701889216E-001 +0.675000000000867E+000  0.000000000000000E+000+0.675000000000955E+000 +0.956698729811321E+000  0.000000000000000E+000+0.324999999999193E+000 +0.433012701890957E-001  0.000000000000000E+000+0.956129287310942E+000 +0.325515102957758E+000  0.000000000000000E+000+0.325000000002025E+000 +0.956698729810697E+000  0.000000000000000E+000+0.422553504359482E-001 +0.325000000001442E+000  0.000000000000000E+000+0.962821875996448E+000 +0.674273439687165E+000  0.000000000000000E+000+0.674999999999144E+000 +0.433012701893359E-001  0.000000000000000E+000+0.824999999999837E+000 +0.956698729811180E+000  0.000000000000000E+000+0.444271510359951E-001 +0.825460099950685E+000  0.000000000000000E+000+0.418821755502279E-001 +0.178034713513914E+000  0.000000000000000E+000+0.827002178664530E+000 +0.419101375958803E-001  0.000000000000000E+000+0.175000000001364E+000 +0.956698729810714E+000  0.000000000000000E+000+0.951657505768048E+000 +0.829760302559237E+000  0.000000000000000E+000+0.955572848964097E+000 +0.174539900048972E+000  0.000000000000000E+000+0.174999999999631E+000 +0.433012701890957E-001  0.000000000000000E+000+0.427199725975886E+000 +0.446449997970992E-001  0.000000000000000E+000+0.955131671511366E+000 +0.422542976162500E+000  0.000000000000000E+000+0.395713943164159E-001 +0.576095040692611E+000  0.000000000000000E+000+0.575000000001545E+000 +0.956698729811061E+000  0.000000000000000E+000+0.424081999973591E-001 +0.749185682683138E-001  0.000000000000000E+000+0.923066243269977E+000 +0.957815184779215E+000  0.000000000000000E+000+0.452848623722546E-001 +0.920408719046854E+000  0.000000000000000E+000+0.923066243270029E+000 +0.421848152208483E-001  0.000000000000000E+000+0.425000000001894E+000 +0.956698729810823E+000  0.000000000000000E+000+0.450000000002063E+000 +0.913397459621806E+000  0.000000000000000E+000+0.400000000002299E+000 +0.913397459621650E+000  0.000000000000000E+000+0.425000000002326E+000 +0.870096189432753E+000  0.000000000000000E+000+0.475000000002088E+000 +0.870096189432920E+000  0.000000000000000E+000+0.450000000002322E+000 +0.826794919243869E+000  0.000000000000000E+000+0.500000000002068E+000 +0.826794919244043E+000  0.000000000000000E+000+0.475000000002309E+000 +0.783493649054976E+000  0.000000000000000E+000+0.525000000002013E+000 +0.783493649055139E+000  0.000000000000000E+000+0.500000000002292E+000 +0.740192378866071E+000  0.000000000000000E+000+0.450000000002568E+000 +0.740192378865915E+000  0.000000000000000E+000+0.475000000002559E+000 +0.696891108677004E+000  0.000000000000000E+000+0.525000000002298E+000 +0.696891108677153E+000  0.000000000000000E+000+0.500000000002558E+000 +0.653589838488077E+000  0.000000000000000E+000+0.550000000002307E+000 +0.653589838488228E+000  0.000000000000000E+000+0.525000000002561E+000 +0.610288568299142E+000  0.000000000000000E+000+0.475000000002812E+000 +0.610288568298997E+000  0.000000000000000E+000+0.500000000002810E+000 +0.566987298110055E+000  0.000000000000000E+000+0.550000000002564E+000 +0.566987298110207E+000  0.000000000000000E+000+0.525000000002806E+000 +0.523686027921112E+000  0.000000000000000E+000+0.475000000003041E+000 +0.523686027920967E+000  0.000000000000000E+000+0.500000000003058E+000 +0.480384757732009E+000  0.000000000000000E+000+0.450000000003269E+000 +0.480384757731869E+000  0.000000000000000E+000+0.550000000002806E+000 +0.480384757732157E+000  0.000000000000000E+000+0.475000000003292E+000 +0.437083487542896E+000  0.000000000000000E+000+0.425000000003498E+000 +0.437083487542755E+000  0.000000000000000E+000+0.400000000003473E+000 +0.480384757731735E+000  0.000000000000000E+000+0.375000000003698E+000 +0.437083487542608E+000  0.000000000000000E+000+0.450000000003523E+000 +0.393782217353769E+000  0.000000000
[...]
      <PointData>
        <DataArray type="Float64" NumberOfComponents="1" Name="T__TempConverged" format="ascii">
           +0.293150000000000E+003 +0.293150000000000E+003 +0.293150000378930E+003 +0.293150000395209E+003 +0.293150000000000E+003 +0.293150000000000E+003 +0.293150000000000E+003 +0.293150000000000E+003 +0.293150000000000E+003 +0.293150000000000E+003 +0.293150000000000E+003 +0.293150000000000E+003 +0.293150000000000E+003 +0.293150000000000E+003 +0.293150000000000E+003 +0.293150000000000E+003 +0.293150000000000E+003 +0.293150000000000E+003 +0.293150000000000E+003 +0.293150000000000E+003 +0.293150000000000E+003 +0.293150000000000E+003 +0.293150000000000E+003 +0.293150000000000E+003 +0.293150000000000E+003 +0.293150000000000E+003 +0.293150000000000E+003 +0.293149999999999E+003 +0.293150000000001E+003 +0.293150000000002E+003 +0.293149999999966E+003 +0.293150000000138E+003 +0.293150000000250E+003 +0.293149999997905E+003 +0.293149999999597E+003 +0.293150000018762E+003 +0.293150000001780E+003 +0.293149999880204E+003 +0.293149999717827E+003 +0.293149999825937E+003 +0.293150000187940E+003 +0.293150000245273E+003 +0.293150000646658E+003 +0.293149983226058E+003 +0.293150121121333E+003 +0.293149962397299E+003 +0.293142364113706E+003 +0.293186876633796E+003 +0.293999153290037E+003 +0.298624631123763E+003 +0.315508293302585E+003 +0.373150000000000E+003 +0.315508293318129E+003 +0.298624630998239E+003 +0.293999153063488E+003 +0.293186876826612E+003 +0.293142364073762E+003 +0.293149962449409E+003 +0.293150121111685E+003 +0.293149983176262E+003 +0.293150000669630E+003 +0.293150000270912E+003 +0.293150000189198E+003 +0.293149999813723E+003 +0.293149999741900E+003 +0.293149999870144E+003 +0.293149999993779E+003 +0.293150000031896E+003 +0.293150000001927E+003 +0.293149999997371E+003 +0.293150000000208E+003 +0.293150000000189E+003 +0.293149999999958E+003 +0.293150000000002E+003 +0.293150000000001E+003 +0.293149999999999E+003 +0.293150000000000E+003 +0.293150000000000E+003 +0.293150000000000E+003 +0.293150000000000E+003 +0.315508293349030E+003 +0.293149999999709E+003 +0.293150000000000E+003 +0.293149999998900E+003 +0.293149999947758E+003 +0.293314839105421E+003 +0.293150000000000E+003 +0.293150000000001E+003 +0.293314837963075E+003 +0.293150000000002E+003 +0.293149999960261E+003 +0.293150000000000E+003 +0.293150300557553E+003 +0.293150001074718E+003 +0.293150000000000E+003 +0.293150000000000E+003 +0.293150300610686E+003 +0.293150001144866E+003 +0.293150000000000E+003 +0.293150000000000E+003 +0.293150000000000E+003 +0.293150000000062E+003 +0.293150000005350E+003 +0.301140239071954E+003 +0.293150000000000E+003 +0.293149994116736E+003 +0.293150001445792E+003 +0.293150000000000E+003 +0.301140238985878E+003 +0.298624631015671E+003 +0.294877044371482E+003 +0.293999153228815E+003 +0.294877045364684E+003 +0.293314838401387E+003 +0.293395092353494E+003 +0.293142420617291E+003 +0.293142420614482E+003 +0.293143658996436E+003 +0.293145099516142E+003 +0.293150188324578E+003 +0.293150188325492E+003 +0.293150197578521E+003 +0.293150154933920E+003 +0.293149978390058E+003 +0.293149978389976E+003 +0.293149994984641E+003 +0.293149996472515E+003 +0.293150001533281E+003 +0.293150001533738E+003 +0.293149999942161E+003 +0.293149999912404E+003 +0.293149999911579E+003 +0.293149999946346E+003 +0.293149999968498E+003 +0.293149999870370E+003 +0.293149999996217E+003 +0.293150000013378E+003 +0.293149999888271E+003 +0.293150000010982E+003 +0.293149999954058E+003 +0.293150000009019E+003 +0.293149999999921E+003 +0.293150000079778E+003 +0.293149999887923E+003 +0.293150001037665E+003 +0.293150000214180E+003 +0.293150000641815E+003 +0.293149999998746E+003 +0.293149999999734E+003 +0.293150317533036E+003 +0.293150064148180E+003 +0.293150300411863E+003 +0.293149996914377E+003 +0.293150121232782E+003 +0.293149983227394E+003 +0.293149996912727E+003 +0.293149994859827E+003 +0.293150000642061E+003 +0.293150000014680E+003 +0.293149999999173E+003 +0.293149999999132E+003 +0.293149999999508E+003 +0.293149999999614E+003 +0.293150000000167E+003 +0.293150000000169E+003 +0.293150000000132E+003 +0.293149999999878E+003 +0.293150000000073E+003 +0.293150000000102E+003 +0.293150000000014E+003 +0.293150000000155E+003 +0.293149999999983E+003 +0.293150000000078E+003 +0.293149999999722E+003 +0.293186876823741E+003 +0.293149962382710E+003 +0.293149985102676E+003 +0.293150064137351E+003 +0.293149999999985E+003 +0.293150000000002E+003 +0.293149999999978E+003 +0.293150001036598E+003 +0.293150000214700E+003 +0.293150000000114E+003 +0.293150001038073E+003 +0.293149994856895E+003 +0.293149999937850E+003 +0.293150000000117E+003 +0.293150000000089E+003 +0.293150000000162E+003 +0.293149999999986E+003 +0.293149999999986E+003 +0.293150000000001E+003 +0.293149999999994E+003 +0.293149999999978E+003 +0.293149978711683E+003 +0.293150155277941E+003 +0.293149999999439E+003 +0.293150317529494E+003 +0.293149999998743E+003 +0.293149999999987E+003 +0.293150000000003E+003 +0.293150000000003E+003 +0.293149999888011E+003 +0.293150001222054E+003 +0.293149985105700E+003 +0.293149999999432E+003 +0.293149996916410E+003 +0.293150064145856E+003 +0.293149978975784E+003 +0.293150154817767E+003 +0.293150001038363E+003 +0.293149999999978E+003 +0.293314838413141E+003 +0.293150000000000E+003 +0.293150000000000E+003 +0.293150000000002E+003 +0.293149999999997E+003 +0.293150000000000E+003 +0.293150000079953E+003 +0.293149999999997E+003 +0.293149999999996E+003 +0.293150000000000E+003 +0.293150000000000E+003 +0.293149977889146E+003 +0.293149978942638E+003 +0.293150000080716E+003 +0.293150196975079E+003 +0.293150188865125E+003 +0.293150001222864E+003 +0.293150300406050E+003 +0.293149999998727E+003 +0.293149999888338E+003 +0.293150000079988E+003 +0.293150198074904E+003 +0.293150187900897E+003 +0.293150000000000E+003 +0.293149996481634E+003 +0.293149996614126E+003 +0.293149999954089E+003 +0.293150000003169E+003 +0.293149977730261E+003 +0.293149980752252E+003 +0.293150189118363E+003 +0.293150121232868E+003 +0.293149999998535E+003 +0.293150000000135E+003 +0.293148012163898E+003 +0.293150000000111E+003 +0.293150000000072E+003 +0.293149985105541E+003 +0.293150000013549E+003 +0.293150000588203E+003 +0.293149999999998E+003 +0.293150000000115E+003 +0.293150000000092E+003 +0.293149999998931E+003 +0.293150000001852E+003 +0.293143659713366E+003 +0.293145099936004E+003 +0.293150187395965E+003 +0.293143658260113E+003 +0.293145099109958E+003 +0.293142421759482E+003 +0.293139709975726E+003 +0.293314840234257E+003 +0.293150000000000E+003 +0.293149999885320E+003 +0.293150000000002E+003 +0.293150000000001E+003 +0.293150000000000E+003 +0.293150000000000E+003 +0.293150000000000E+003 +0.293149999999443E+003 +0.293150000002171E+003 +0.293150000000108E+003 +0.293149999894272E+003 +0.293149999952846E+003 +0.293139710094985E+003 +0.293150000613237E+003 +0.293150000000003E+003 +0.293150000000000E+003 +0.293150000000002E+003 +0.293150000000000E+003 +0.293149999954284E+003 +0.293149999888480E+003 +0.293150000597694E+003 +0.293145099968381E+003 +0.293142418781236E+003 +0.293145098856309E+003 +0.293150000000011E+003 +0.293150000000000E+003 +0.293150000009624E+003 +0.293150000001765E+003 +0.293150000000000E+003 +0.293149999998641E+003 +0.293150000000000E+003 +0.293150000000000E+003 +0.293150000000000E+003 +0.293150000000000E+003 +0.293150000000000E+003 +0.293150000000000E+003 +0.293150000000105E+003 +0.293149999837268E+003 +0.293149999886918E+003 +0.293149999991571E+003 +0.293150000011446E+003 +0.293149999998550E+003 +0.293150317619077E+003 +0.294877044956827E+003 +0.293150000000071E+003 +0.293149999999977E+003 +0.293148012135402E+003 +0.315508293332500E+003 +0.298624631441393E+003 +0.293149999998810E+003 +0.293150000011050E+003 +0.293150000000000E+003 +0.293150000000000E+003 +0.293150000000000E+003 +0.293150000000001E+003 +0.293150000000000E+003 +0.293186876542169E+003 +0.293150300408015E+003 +0.293150064145337E+003 +0.293149996914111E+003 +0.293150000000000E+003 +0.293149999999797E+003 +0.293150000000000E+003 +0.293149962367480E+003 +0.293150000000001E+003 +0.293149999999997E+003 +0.293150000000001E+003 +0.293142363958882E+003 +0.293150000000000E+003 +0.293149997888010E+003 +0.293149984980241E+003 +0.293150001503450E+003 +0.293149998981659E+003 +0.293150065347395E+003 +0.293149999878432E+003 +0.293150000058462E+003 +0.293150001318479E+003 +0.293150001467161E+003 +0.293149998145967E+003 +0.293150064245547E+003 +0.293149985386796E+003 +0.293149979044484E+003 +0.293149999300006E+003 +0.293149997116070E+003 +0.293150001566866E+003 +0.293149995687304E+003 +0.293150001585955E+003 +0.293150001165693E+003 +0.293150000000000E+003 +0.293150000000000E+003 +0.293150000000000E+003 +0.293150000000000E+003 +0.293150000000000E+003 +0.293150000000000E+003 +0.293150000000000E+003 +0.293150000000000E+003 +0.293150000000001E+003 +0.293150000000000E+003 +0.301140239148608E+003 +0.293150000000001E+003 +0.293149985104975E+003 +0.293149999999004E+003 +0.293150000004278E+003 +0.293150000009744E+003 +0.293150000000000E+003 +0.293150000597464E+003 +0.293150001187163E+003 +0.293150000001880E+003 +0.293150001223314E+003 +0.293150000002535E+003 +0.293149999998956E+003 +0.293150000000103E+003 +0.293150000000015E+003 +0.293150300425602E+003 +0.293149994856669E+003 +0.293142364079923E+003 +0.293150000000015E+003 +0.293149999888284E+003 +0.293149999999985E+003 +0.293150000000001E+003 +0.293148012219099E+003 +0.293149999836908E+003 +0.293150000000001E+003 +0.293150000008688E+003 +0.293150000010849E+003 +0.293150317623306E+003 +0.293149996473239E+003 +0.293149999999631E+003 +0.293148012164266E+003 +0.294877045380192E+003 +0.293149999938246E+003 +0.293150000003825E+003 +0.293149978910560E+003 +0.293150154933146E+003 +0.293149999999978E+003 +0.293139710128115E+003 +0.293145099518529E+003 +0.293149983228751E+003 +0.293150000009581E+003 +0.293149999999980E+003 +0.293149999999978E+003 +0.293149999946283E+003 +0.293150000000003E+003 +0.293149999457291E+003 +0.293149994856569E+003 +0.293150317554333E+003 +0.293150000003540E+003 +0.293149999998698E+003 +0.293149999999997E+003 +0.293150001226049E+003 +0.293149978909677E+003 +0.293150000009474E+003 +0.293150000000000E+003 +0.293149999968531E+003 +0.293150000000001E+003 +0.293139709675503E+003 +0.293149999440377E+003 +0.293149999998502E+003 +0.293149999999988E+003 +0.294877045237446E+003 +0.293150154400014E+003 +0.293149999440938E+003 +0.293149999999882E+003 +0.293150000009106E+003 +0.293150000000002E+003 +0.293149999446715E+003 +0.293149999999981E+003 +0.293150001185258E+003 +0.293314834471952E+003 +0.293150000000074E+003 +0.293150000000000E+003 +0.293150001135665E+003 +0.293149999999984E+003 +0.293150000000003E+003 +0.293149999870126E+003 +0.294877048431467E+003 +0.293999153304728E+003 +0.293149999996494E+003 +0.293150000002731E+003 +0.293395097700881E+003 +0.293150000011156E+003 +0.293142423474995E+003 +0.293150000010327E+003 +0.293149999998788E+003 +0.293149999999397E+003 +0.293139711295129E+003 +0.293395087699412E+003 +0.293148012103697E+003 +0.293142418303899E+003 +0.293150316497892E+003 +0.293139709655209E+003 +0.293148012257225E+003 +0.293150156734088E+003 +0.293149979682506E+003 +0.293150000004075E+003 +0.293150000000000E+003 +0.293150000000000E+003 +0.293150000000000E+003 +0.293150000000001E+003 +0.293150000000000E+003 +0.293149999999999E+003 +0.293150000000000E+003 +0.293150000000000E+003 +0.293150000000000E+003 +0.293150000000000E+003 +0.293150000000000E+003 +0.293150000000000E+003 +0.293149999999997E+003 +0.293149994104159E+003 +0.293150000000000E+003 +0.293150000000000E+003 +0.293149994203824E+003 +0.293150000000002E+003 +0.293149999879580E+003 +0.293149999999982E+003 +0.293149999999988E+003 +0.293150000028983E+003 +0.293150000000000E+003 +0.293150000002995E+003 +0.293150000011617E+003 +0.293149999999987E+003 +0.293149999999969E+003 +0.293150000698833E+003 +0.293150000757400E+003 +0.293150000000000E+003 +0.293150000000129E+003 +0.293150000000316E+003 +0.293150000005134E+003 +0.293150000000000E+003 +0.293149995243616E+003 +0.293150000000000E+003 +0.293150000000001E+003 +0.293150000821431E+003 +0.293150000000000E+003 +0.293150000832048E+003 +0.293150000000000E+003 +0.293150000000000E+003 +0.293150000000002E+003 +0.293150000000000E+003 +0.293150000000000E+003 +0.293150000000000E+003 +0.293150000000000E+003 +0.293150000000000E+003 +0.293150000000000E+003 +0.293150000000000E+003 +0.293149999939719E+003 +0.293150000006690E+003
        </DataArray>
      </PointData>
    </Piece>
  </UnstructuredGrid>
</VTKFile>
