<?xml version="1.0"?>
<VTKFile type="UnstructuredGrid" version="1.0" byte_order="LittleEndian">
  <UnstructuredGrid>
    <Piece NumberOfPoints="+155" NumberOfCells="+256">
      <Points>
        <DataArray type="Float64" NumberOfComponents="3" Name="Points" format="ascii">
           0.000000000000000E+000  0.000000000000000E+000  0.000000000000000E+000+0.100000000000000E+000  0.000000000000000E+000  0.000000000000000E+000+0.100000000000000E+000 +0.260000000000000E-001  0.000000000000000E+000 0.000000000000000E+000 +0.260000000000000E-001  0.000000000000000E+000+0.499999999999030E-002  0.000000000000000E+000  0.000000000000000E+000+0.999999999998248E-002  0.000000000000000E+000  0.000000000000000E+000+0.149999999999717E-001  0.000000000000000E+000  0.000000000000000E+000+0.199999999999560E-001  0.000000000000000E+000  0.000000000000000E+000+0.249999999999416E-001  0.000000000000000E+000  0.000000000000000E+000+0.299999999999273E-001  0.000000000000000E+000  0.000000000000000E+000+0.349999999999129E-001  0.000000000000000E+000  0.000000000000000E+000+0.399999999998958E-001  0.000000000000000E+000  0.000000000000000E+000+0.449999999998815E-001  0.000000000000000E+000  0.000000000000000E+000+0.499999999998685E-001  0.000000000000000E+000  0.000000000000000E+000+0.549999999998802E-001  0.000000000000000E+000  0.000000000000000E+000+0.599999999998943E-001  0.000000000000000E+000  0.000000000000000E+000+0.649999999999086E-001  0.000000000000000E+000  0.000000000000000E+000+0.699999999999197E-001  0.000000000000000E+000  0.000000000000000E+000+0.749999999999336E-001  0.000000000000000E+000  0.000000000000000E+000+0.799999999999474E-001  0.000000000000000E+000  0.000000000000000E+000+0.849999999999585E-001  0.000000000000000E+000  0.000000000000000E+000+0.899999999999729E-001  0.000000000000000E+000  0.000000000000000E+000+0.949999999999878E-001  0.000000000000000E+000  0.000000000000000E+000+0.100000000000000E+000 +0.433333333332438E-002  0.000000000000000E+000+0.100000000000000E+000 +0.866666666664460E-002  0.000000000000000E+000+0.100000000000000E+000 +0.129999999999662E-001  0.000000000000000E+000+0.100000000000000E+000 +0.173333333333106E-001  0.000000000000000E+000+0.100000000000000E+000 +0.216666666666560E-001  0.000000000000000E+000+0.950000000000138E-001 +0.260000000000000E-001  0.000000000000000E+000+0.900000000000276E-001 +0.260000000000000E-001  0.000000000000000E+000+0.850000000000415E-001 +0.260000000000000E-001  0.000000000000000E+000+0.800000000000553E-001 +0.260000000000000E-001  0.000000000000000E+000+0.750000000000691E-001 +0.260000000000000E-001  0.000000000000000E+000+0.700000000000829E-001 +0.260000000000000E-001  0.000000000000000E+000+0.650000000000968E-001 +0.260000000000000E-001  0.000000000000000E+000+0.600000000001106E-001 +0.260000000000000E-001  0.000000000000000E+000+0.550000000001244E-001 +0.260000000000000E-001  0.000000000000000E+000+0.500000000001369E-001 +0.260000000000000E-001  0.000000000000000E+000+0.450000000001247E-001 +0.260000000000000E-001  0.000000000000000E+000+0.400000000001100E-001 +0.260000000000000E-001  0.000000000000000E+000+0.350000000000951E-001 +0.260000000000000E-001  0.000000000000000E+000+0.300000000000835E-001 +0.260000000000000E-001  0.000000000000000E+000+0.250000000000691E-001 +0.260000000000000E-001  0.000000000000000E+000+0.200000000000548E-001 +0.260000000000000E-001  0.000000000000000E+000+0.150000000000431E-001 +0.260000000000000E-001  0.000000000000000E+000+0.100000000000282E-001 +0.260000000000000E-001  0.000000000000000E+000+0.500000000001274E-002 +0.260000000000000E-001  0.000000000000000E+000 0.000000000000000E+000 +0.216666666666761E-001  0.000000000000000E+000 0.000000000000000E+000 +0.173333333333561E-001  0.000000000000000E+000 0.000000000000000E+000 +0.130000000000335E-001  0.000000000000000E+000 0.000000000000000E+000 +0.866666666668923E-002  0.000000000000000E+000 0.000000000000000E+000 +0.433333333334393E-002  0.000000000000000E+000+0.474770501596061E-001 +0.449457555865549E-002  0.000000000000000E+000+0.624137095822587E-001 +0.218639104185592E-001  0.000000000000000E+000+0.274710820211137E-001 +0.439781066491993E-002  0.000000000000000E+000+0.775162404499768E-001 +0.218822875726493E-001  0.000000000000000E+000+0.175000000000489E-001 +0.216698729810677E-001  0.000000000000000E+000+0.374049377742800E-001 +0.217454153049271E-001  0.000000000000000E+000+0.873299162642599E-001 +0.493503711796043E-002  0.000000000000000E+000+0.962472232502677E-001 +0.151666666666384E-001  0.000000000000000E+000+0.361092965627013E-002 +0.107352657633569E-001  0.000000000000000E+000+0.524222487305538E-001 +0.217494710322139E-001  0.000000000000000E+000+0.724471979965309E-001 +0.480286472974082E-002  0.000000000000000E+000+0.574556233588582E-001 +0.465234046326982E-002  0.000000000000000E+000+0.374775082418216E-001 +0.443588749052796E-002  0.000000000000000E+000+0.174620748440649E-001 +0.432604372433973E-002  0.000000000000000E+000+0.274069445303662E-001 +0.216995189535168E-001  0.000000000000000E+000+0.875000000000345E-001 +0.216698729810898E-001  0.000000000000000E+000+0.768509429014877E-002 +0.215379337211246E-001  0.000000000000000E+000+0.963904321494850E-001 +0.661398939465712E-002  0.000000000000000E+000+0.727642177052906E-002 +0.443011470774208E-002  0.000000000000000E+000+0.124449834836647E-001 +0.431291926454894E-002  0.000000000000000E+000+0.149241258378327E-001 +0.860791945987163E-002  0.000000000000000E+000+0.199074884808963E-001 +0.868183890874860E-002  0.000000000000000E+000+0.173445817427756E-001 +0.129363585197896E-001  0.000000000000000E+000+0.223149927841523E-001 +0.130318645013867E-001  0.000000000000000E+000+0.124626594021863E-001 +0.128806353569139E-001  0.000000000000000E+000+0.148978737522776E-001 +0.172549170089808E-001  0.000000000000000E+000+0.100477085488613E-001 +0.173020481200621E-001  0.000000000000000E+000+0.248943288561033E-001 +0.874693478464290E-002  0.000000000000000E+000+0.273027333778438E-001 +0.131023208673426E-001  0.000000000000000E+000+0.298881968642471E-001 +0.882634524946797E-002  0.000000000000000E+000+0.322939746294813E-001 +0.132008562712349E-001  0.000000000000000E+000+0.348859478408316E-001 +0.889254633445792E-002  0.000000000000000E+000+0.372904969874290E-001 +0.132949678594278E-001  0.000000000000000E+000+0.398845499064174E-001 +0.897728704381017E-002  0.000000000000000E+000+0.422917602893396E-001 +0.133530215891990E-001  0.000000000000000E+000+0.448841050044180E-001 +0.904101635819934E-002  0.000000000000000E+000+0.472915329690292E-001 +0.134187777030845E-001  0.000000000000000E+000+0.448528380708523E-001 +0.175735435605107E-001  0.000000000000000E+000+0.498836917835918E-001 +0.911991320375936E-002  0.000000000000000E+000+0.522874069975051E-001 +0.135507216540452E-001  0.000000000000000E+000+0.548790812949033E-001 +0.921149949688830E-002  0.000000000000000E+000+0.572863231540567E-001 +0.136388959671376E-001  0.000000000000000E+000+0.598790589316415E-001 +0.918407375678816E-002  0.000000000000000E+000+0.623590312841999E-001 +0.136161871876397E-001  0.000000000000000E+000+0.648882846946340E-001 +0.929768835114423E-002  0.000000000000000E+000+0.673708037938968E-001 +0.137654412938815E-001  0.000000000000000E+000+0.698815075929149E-001 +0.944835648181582E-002  0.000000000000000E+000+0.723006618538128E-001 +0.138184730749027E-001  0.000000000000000E+000+0.699048578930071E-001 +0.178446291117357E-001  0.000000000000000E+000+0.748765735527623E-001 +0.937460219893974E-002  0.000000000000000E+000+0.773169545123332E-001 +0.138727132318244E-001  0.000000000000000E+000+0.798463307594286E-001 +0.960013646147148E-002  0.000000000000000E+000+0.823528893119287E-001 +0.139299421283865E-001  0.000000000000000E+000+0.847816044956594E-001 +0.970343309172691E-002  0.000000000000000E+000+0.872193013720580E-001 +0.140356141943716E-001  0.000000000000000E+000+0.894050078821107E-001 +0.926570675087459E-002  0.000000000000000E+000+0.824082332243445E-001 +0.499899823812024E-002  0.000000000000000E+000+0.674500068614159E-001 +0.480706579594959E-002  0.000000000000000E+000+0.102343281449715E-001 +0.864992134013922E-002  0.000000000000000E+000+0.125217794319013E-001 +0.216274619718725E-001  0.000000000000000E+000+0.530727028577484E-002 +0.174243678533301E-001  0.000000000000000E+000+0.927072212021592E-001 +0.216524795078309E-001  0.000000000000000E+000+0.825446721529249E-001 +0.217623324626207E-001  0.000000000000000E+000+0.248287209997012E-001 +0.173700977842713E-001  0.000000000000000E+000+0.774559974953847E-001 +0.467369623047021E-002  0.000000000000000E+000+0.524492410994514E-001 +0.457972145376216E-002  0.000000000000000E+000+0.424538688853401E-001 +0.449146107519883E-002  0.000000000000000E+000+0.624631306950981E-001 +0.456708086287553E-002  0.000000000000000E+000+0.324537891613090E-001 +0.442543162322896E-002  0.000000000000000E+000+0.224558290336793E-001 +0.435877134710853E-002  0.000000000000000E+000+0.323740723540678E-001 +0.216972078724282E-001  0.000000000000000E+000+0.573773859284986E-001 +0.217991888252024E-001  0.000000000000000E+000+0.198976948798363E-001 +0.173400626964691E-001  0.000000000000000E+000+0.962582298363988E-001 +0.110362954798282E-001  0.000000000000000E+000+0.224563524297887E-001 +0.217077368256298E-001  0.000000000000000E+000+0.921069635138181E-001 +0.135809272238655E-001  0.000000000000000E+000+0.923858042830145E-001 +0.440245293971425E-002  0.000000000000000E+000+0.474148725805479E-001 +0.218043592700527E-001  0.000000000000000E+000+0.297698604248976E-001 +0.173792298551515E-001  0.000000000000000E+000+0.734871392924924E-002 +0.128570511094810E-001  0.000000000000000E+000+0.363766117527133E-002 +0.655253480415738E-002  0.000000000000000E+000+0.347814593749260E-001 +0.174396077677385E-001  0.000000000000000E+000+0.964468684680814E-001 +0.193951920109048E-001  0.000000000000000E+000+0.398535820828240E-001 +0.175636784640132E-001  0.000000000000000E+000+0.424210384181232E-001 +0.217811660999173E-001  0.000000000
[...]
      <PointData>
        <DataArray type="Float64" NumberOfComponents="1" Name="T__TempConverged" format="ascii">
           +0.263150000000000E+003 +0.263150000000000E+003 +0.263150000000000E+003 +0.263150000000000E+003 +0.263150000000000E+003 +0.263150000000000E+003 +0.263150000000000E+003 +0.263150000000000E+003 +0.263150000000000E+003 +0.263150000000000E+003 +0.263150000000000E+003 +0.263150000000000E+003 +0.263150000000000E+003 +0.263150000000000E+003 +0.263150000000000E+003 +0.263150000000000E+003 +0.263150000000000E+003 +0.263150000000000E+003 +0.263150000000000E+003 +0.263150000000000E+003 +0.263150000000000E+003 +0.263150000000000E+003 +0.263150000000000E+003 +0.296028577026384E+003 +0.300646879825988E+003 +0.300013881484382E+003 +0.300655430632652E+003 +0.296010772384024E+003 +0.263150000000000E+003 +0.263150000000000E+003 +0.263150000000000E+003 +0.263150000000000E+003 +0.263150000000000E+003 +0.263150000000000E+003 +0.263150000000000E+003 +0.263150000000000E+003 +0.263150000000000E+003 +0.263150000000000E+003 +0.263150000000000E+003 +0.263150000000000E+003 +0.263150000000000E+003 +0.263150000000000E+003 +0.263150000000000E+003 +0.263150000000000E+003 +0.263150000000000E+003 +0.263150000000000E+003 +0.263150000000000E+003 +0.292449641683807E+003 +0.300952605778814E+003 +0.300083825276015E+003 +0.300646381871829E+003 +0.296005490744218E+003 +0.292735003444963E+003 +0.291750639987292E+003 +0.292492586806086E+003 +0.291670840014160E+003 +0.292320952959282E+003 +0.292113181759034E+003 +0.293710918600139E+003 +0.300225466881607E+003 +0.300229678273152E+003 +0.292099173466249E+003 +0.293430601868607E+003 +0.293131011479968E+003 +0.292592585017028E+003 +0.292295130967901E+003 +0.292230656414694E+003 +0.292189923700653E+003 +0.292308231872710E+003 +0.299989663156926E+003 +0.292913330498397E+003 +0.292214846859433E+003 +0.300887046535245E+003 +0.300892854836195E+003 +0.300122388021848E+003 +0.300127391636761E+003 +0.300141112426915E+003 +0.300929928311885E+003 +0.300868371641503E+003 +0.300898728473395E+003 +0.300129484443872E+003 +0.300908008319464E+003 +0.300130061018855E+003 +0.300930519584724E+003 +0.300130067341350E+003 +0.300939855025049E+003 +0.300131046573269E+003 +0.300954592741738E+003 +0.300135175556310E+003 +0.300864348890832E+003 +0.300951300482361E+003 +0.300138860272751E+003 +0.300945020375708E+003 +0.300139273404843E+003 +0.300930042666091E+003 +0.300142617615331E+003 +0.300931402186718E+003 +0.300142806564608E+003 +0.300923277051451E+003 +0.300145553903778E+003 +0.300780850598481E+003 +0.300926351289017E+003 +0.300154279883638E+003 +0.300968169933395E+003 +0.300161639017713E+003 +0.300939237723927E+003 +0.300169147406429E+003 +0.300988341990290E+003 +0.293858359009530E+003 +0.293462160736913E+003 +0.300955148559695E+003 +0.292385053816166E+003 +0.300417305956067E+003 +0.292635315469797E+003 +0.291944595131127E+003 +0.300899338717284E+003 +0.293050574791129E+003 +0.292943071481181E+003 +0.292750359553632E+003 +0.292842187705725E+003 +0.292570925872750E+003 +0.292388192128921E+003 +0.292252135050445E+003 +0.291957355405765E+003 +0.300896844769890E+003 +0.300231248306411E+003 +0.292201394867878E+003 +0.300105248060728E+003 +0.292778043746134E+003 +0.291923745441131E+003 +0.300889603445883E+003 +0.300116277700225E+003 +0.299852488032668E+003 +0.300876305967849E+003 +0.299987956938596E+003 +0.300832942789466E+003 +0.292004348667267E+003 +0.291614054912807E+003 +0.300860827841757E+003 +0.300823576774708E+003 +0.300790236348228E+003 +0.300798548836669E+003 +0.300799464912306E+003 +0.291640382522539E+003 +0.300542464583997E+003 +0.300772827354613E+003 +0.300645728053671E+003 +0.293805373470928E+003 +0.300578417698982E+003 +0.300231231982865E+003 +0.300468998121285E+003 +0.286434374309766E+003 +0.286336460320130E+003 +0.286345569992133E+003 +0.300499438935195E+003
        </DataArray>
        <DataArray type="Float64" NumberOfComponents="1" Name="R__Res" format="ascii">
            0.000000000000000E+000  0.000000000000000E+000  0.000000000000000E+000  0.000000000000000E+000  0.000000000000000E+000  0.000000000000000E+000  0.000000000000000E+000  0.000000000000000E+000  0.000000000000000E+000  0.000000000000000E+000  0.000000000000000E+000  0.000000000000000E+000  0.000000000000000E+000  0.000000000000000E+000  0.000000000000000E+000  0.000000000000000E+000  0.000000000000000E+000  0.000000000000000E+000  0.000000000000000E+000  0.000000000000000E+000  0.000000000000000E+000  0.000000000000000E+000  0.000000000000000E+000 -0.198164169825317E-001 +0.440803310519655E-009 -0.139799831433418E-009 +0.437601704872392E-009 -0.194289516140451E-001  0.000000000000000E+000  0.000000000000000E+000  0.000000000000000E+000  0.000000000000000E+000  0.000000000000000E+000  0.000000000000000E+000  0.000000000000000E+000  0.000000000000000E+000  0.000000000000000E+000  0.000000000000000E+000  0.000000000000000E+000  0.000000000000000E+000  0.000000000000000E+000  0.000000000000000E+000  0.000000000000000E+000  0.000000000000000E+000  0.000000000000000E+000  0.000000000000000E+000  0.000000000000000E+000 -0.629495425998305E-002 +0.136172381703936E-008 -0.129652996672114E-009 +0.457353516170045E-009 -0.194619440445458E-001 -0.440304750977205E-001 -0.649306272551256E-001 -0.491194348196551E-001 -0.672399218282562E-001 -0.524671498831819E-001 -0.569479858003030E-001 -0.181098274844418E-001 -0.547774048342831E-010 -0.669439226275159E-010 -0.576441905108327E-001 -0.204107384592724E-001 -0.344092609307562E-001 -0.468828328648279E-001 -0.531171793140288E-001 -0.540332540211907E-001 -0.548151174104232E-001 -0.436566369231288E-001 -0.233831656260008E-007 -0.509588040418141E-001 -0.534124948713259E-001 +0.690425949745332E-008 -0.326002650430368E-007 -0.202973455543098E-007 -0.449532161495014E-009 -0.196212708303278E-007 +0.242344513901038E-008 -0.807367495081479E-008 -0.164469259322786E-007 -0.429738665902457E-007 +0.286305613939053E-008 +0.298575880686158E-008 +0.237450614726242E-008 -0.309063515058217E-008 -0.153083078435756E-007 +0.706033331798750E-008 +0.643934526534107E-008 +0.598013957797683E-009 -0.674714040749258E-007 -0.256347644778110E-007 +0.133262597623585E-007 -0.674062455713331E-007 -0.427817359593963E-007 -0.201721988835057E-007 +0.149336825822077E-007 +0.215584371188182E-008 -0.566821889425029E-008 -0.107008320399116E-007 +0.130702383360770E-007 +0.251697881981094E-007 -0.111353773424305E-008 -0.109759309696589E-007 -0.776644617644928E-007 -0.286617197475802E-007 -0.111818209830306E-007 +0.638683516490657E-008 +0.194241195350386E-008 -0.174169609173283E-001 -0.201900504589876E-001 -0.113693492398426E-007 -0.512155355141726E-001 -0.361646217417189E-007 -0.558069064400719E-001 -0.602258627669512E-001 +0.172548055010768E-008 -0.228943376530388E-001 -0.382025512749404E-001 -0.445626572781990E-001 -0.312372528194604E-001 -0.477134196864757E-001 -0.511849260325636E-001 -0.542423826588090E-001 -0.602275965218375E-001 -0.494163164832528E-007 -0.818470846652986E-010 -0.542711935842455E-001 +0.280123590157277E-007 -0.405164941730269E-001 -0.604567428588823E-001 -0.536703003845007E-007 -0.756053703948600E-007 +0.110638714856393E-007 +0.226924851409738E-007 +0.703437182947297E-007 +0.996279719833737E-008 -0.592064996122978E-001 -0.685648354520048E-001 -0.731828314337601E-007 +0.578586039357010E-007 +0.696918791842638E-007 +0.116531001514986E-008 +0.536940031048427E-007 -0.671071167106758E-001 -0.178937908934529E-008 -0.198108206506120E-007 +0.438330542973375E-007 -0.230868331472251E-001 +0.213780596003410E-008 -0.192828281120327E-008 -0.733988556600451E-007 -0.133977653015133E+000 -0.130024549968682E+000 -0.131441615378394E+000 -0.252740307016275E-007
        </DataArray>
      </PointData>
    </Piece>
  </UnstructuredGrid>
</VTKFile>
