<?xml version="1.0"?>
<VTKFile type="UnstructuredGrid" version="1.0" byte_order="LittleEndian">
  <UnstructuredGrid>
    <Piece NumberOfPoints="+155" NumberOfCells="+256">
      <Points>
        <DataArray type="Float64" NumberOfComponents="3" Name="Points" format="ascii">
           0.000000000000000E+000  0.000000000000000E+000  0.000000000000000E+000+0.100000000000000E+000  0.000000000000000E+000  0.000000000000000E+000+0.100000000000000E+000 +0.260000000000000E-001  0.000000000000000E+000 0.000000000000000E+000 +0.260000000000000E-001  0.000000000000000E+000+0.499999999999030E-002  0.000000000000000E+000  0.000000000000000E+000+0.999999999998248E-002  0.000000000000000E+000  0.000000000000000E+000+0.149999999999717E-001  0.000000000000000E+000  0.000000000000000E+000+0.199999999999560E-001  0.000000000000000E+000  0.000000000000000E+000+0.249999999999416E-001  0.000000000000000E+000  0.000000000000000E+000+0.299999999999273E-001  0.000000000000000E+000  0.000000000000000E+000+0.349999999999129E-001  0.000000000000000E+000  0.000000000000000E+000+0.399999999998958E-001  0.000000000000000E+000  0.000000000000000E+000+0.449999999998815E-001  0.000000000000000E+000  0.000000000000000E+000+0.499999999998685E-001  0.000000000000000E+000  0.000000000000000E+000+0.549999999998802E-001  0.000000000000000E+000  0.000000000000000E+000+0.599999999998943E-001  0.000000000000000E+000  0.000000000000000E+000+0.649999999999086E-001  0.000000000000000E+000  0.000000000000000E+000+0.699999999999197E-001  0.000000000000000E+000  0.000000000000000E+000+0.749999999999336E-001  0.000000000000000E+000  0.000000000000000E+000+0.799999999999474E-001  0.000000000000000E+000  0.000000000000000E+000+0.849999999999585E-001  0.000000000000000E+000  0.000000000000000E+000+0.899999999999729E-001  0.000000000000000E+000  0.000000000000000E+000+0.949999999999878E-001  0.000000000000000E+000  0.000000000000000E+000+0.100000000000000E+000 +0.433333333332438E-002  0.000000000000000E+000+0.100000000000000E+000 +0.866666666664460E-002  0.000000000000000E+000+0.100000000000000E+000 +0.129999999999662E-001  0.000000000000000E+000+0.100000000000000E+000 +0.173333333333106E-001  0.000000000000000E+000+0.100000000000000E+000 +0.216666666666560E-001  0.000000000000000E+000+0.950000000000138E-001 +0.260000000000000E-001  0.000000000000000E+000+0.900000000000276E-001 +0.260000000000000E-001  0.000000000000000E+000+0.850000000000415E-001 +0.260000000000000E-001  0.000000000000000E+000+0.800000000000553E-001 +0.260000000000000E-001  0.000000000000000E+000+0.750000000000691E-001 +0.260000000000000E-001  0.000000000000000E+000+0.700000000000829E-001 +0.260000000000000E-001  0.000000000000000E+000+0.650000000000968E-001 +0.260000000000000E-001  0.000000000000000E+000+0.600000000001106E-001 +0.260000000000000E-001  0.000000000000000E+000+0.550000000001244E-001 +0.260000000000000E-001  0.000000000000000E+000+0.500000000001369E-001 +0.260000000000000E-001  0.000000000000000E+000+0.450000000001247E-001 +0.260000000000000E-001  0.000000000000000E+000+0.400000000001100E-001 +0.260000000000000E-001  0.000000000000000E+000+0.350000000000951E-001 +0.260000000000000E-001  0.000000000000000E+000+0.300000000000835E-001 +0.260000000000000E-001  0.000000000000000E+000+0.250000000000691E-001 +0.260000000000000E-001  0.000000000000000E+000+0.200000000000548E-001 +0.260000000000000E-001  0.000000000000000E+000+0.150000000000431E-001 +0.260000000000000E-001  0.000000000000000E+000+0.100000000000282E-001 +0.260000000000000E-001  0.000000000000000E+000+0.500000000001274E-002 +0.260000000000000E-001  0.000000000000000E+000 0.000000000000000E+000 +0.216666666666761E-001  0.000000000000000E+000 0.000000000000000E+000 +0.173333333333561E-001  0.000000000000000E+000 0.000000000000000E+000 +0.130000000000335E-001  0.000000000000000E+000 0.000000000000000E+000 +0.866666666668923E-002  0.000000000000000E+000 0.000000000000000E+000 +0.433333333334393E-002  0.000000000000000E+000+0.474770501596061E-001 +0.449457555865549E-002  0.000000000000000E+000+0.624137095822587E-001 +0.218639104185592E-001  0.000000000000000E+000+0.274710820211137E-001 +0.439781066491993E-002  0.000000000000000E+000+0.775162404499768E-001 +0.218822875726493E-001  0.000000000000000E+000+0.175000000000489E-001 +0.216698729810677E-001  0.000000000000000E+000+0.374049377742800E-001 +0.217454153049271E-001  0.000000000000000E+000+0.873299162642599E-001 +0.493503711796043E-002  0.000000000000000E+000+0.962472232502677E-001 +0.151666666666384E-001  0.000000000000000E+000+0.361092965627013E-002 +0.107352657633569E-001  0.000000000000000E+000+0.524222487305538E-001 +0.217494710322139E-001  0.000000000000000E+000+0.724471979965309E-001 +0.480286472974082E-002  0.000000000000000E+000+0.574556233588582E-001 +0.465234046326982E-002  0.000000000000000E+000+0.374775082418216E-001 +0.443588749052796E-002  0.000000000000000E+000+0.174620748440649E-001 +0.432604372433973E-002  0.000000000000000E+000+0.274069445303662E-001 +0.216995189535168E-001  0.000000000000000E+000+0.875000000000345E-001 +0.216698729810898E-001  0.000000000000000E+000+0.768509429014877E-002 +0.215379337211246E-001  0.000000000000000E+000+0.963904321494850E-001 +0.661398939465712E-002  0.000000000000000E+000+0.727642177052906E-002 +0.443011470774208E-002  0.000000000000000E+000+0.124449834836647E-001 +0.431291926454894E-002  0.000000000000000E+000+0.149241258378327E-001 +0.860791945987163E-002  0.000000000000000E+000+0.199074884808963E-001 +0.868183890874860E-002  0.000000000000000E+000+0.173445817427756E-001 +0.129363585197896E-001  0.000000000000000E+000+0.223149927841523E-001 +0.130318645013867E-001  0.000000000000000E+000+0.124626594021863E-001 +0.128806353569139E-001  0.000000000000000E+000+0.148978737522776E-001 +0.172549170089808E-001  0.000000000000000E+000+0.100477085488613E-001 +0.173020481200621E-001  0.000000000000000E+000+0.248943288561033E-001 +0.874693478464290E-002  0.000000000000000E+000+0.273027333778438E-001 +0.131023208673426E-001  0.000000000000000E+000+0.298881968642471E-001 +0.882634524946797E-002  0.000000000000000E+000+0.322939746294813E-001 +0.132008562712349E-001  0.000000000000000E+000+0.348859478408316E-001 +0.889254633445792E-002  0.000000000000000E+000+0.372904969874290E-001 +0.132949678594278E-001  0.000000000000000E+000+0.398845499064174E-001 +0.897728704381017E-002  0.000000000000000E+000+0.422917602893396E-001 +0.133530215891990E-001  0.000000000000000E+000+0.448841050044180E-001 +0.904101635819934E-002  0.000000000000000E+000+0.472915329690292E-001 +0.134187777030845E-001  0.000000000000000E+000+0.448528380708523E-001 +0.175735435605107E-001  0.000000000000000E+000+0.498836917835918E-001 +0.911991320375936E-002  0.000000000000000E+000+0.522874069975051E-001 +0.135507216540452E-001  0.000000000000000E+000+0.548790812949033E-001 +0.921149949688830E-002  0.000000000000000E+000+0.572863231540567E-001 +0.136388959671376E-001  0.000000000000000E+000+0.598790589316415E-001 +0.918407375678816E-002  0.000000000000000E+000+0.623590312841999E-001 +0.136161871876397E-001  0.000000000000000E+000+0.648882846946340E-001 +0.929768835114423E-002  0.000000000000000E+000+0.673708037938968E-001 +0.137654412938815E-001  0.000000000000000E+000+0.698815075929149E-001 +0.944835648181582E-002  0.000000000000000E+000+0.723006618538128E-001 +0.138184730749027E-001  0.000000000000000E+000+0.699048578930071E-001 +0.178446291117357E-001  0.000000000000000E+000+0.748765735527623E-001 +0.937460219893974E-002  0.000000000000000E+000+0.773169545123332E-001 +0.138727132318244E-001  0.000000000000000E+000+0.798463307594286E-001 +0.960013646147148E-002  0.000000000000000E+000+0.823528893119287E-001 +0.139299421283865E-001  0.000000000000000E+000+0.847816044956594E-001 +0.970343309172691E-002  0.000000000000000E+000+0.872193013720580E-001 +0.140356141943716E-001  0.000000000000000E+000+0.894050078821107E-001 +0.926570675087459E-002  0.000000000000000E+000+0.824082332243445E-001 +0.499899823812024E-002  0.000000000000000E+000+0.674500068614159E-001 +0.480706579594959E-002  0.000000000000000E+000+0.102343281449715E-001 +0.864992134013922E-002  0.000000000000000E+000+0.125217794319013E-001 +0.216274619718725E-001  0.000000000000000E+000+0.530727028577484E-002 +0.174243678533301E-001  0.000000000000000E+000+0.927072212021592E-001 +0.216524795078309E-001  0.000000000000000E+000+0.825446721529249E-001 +0.217623324626207E-001  0.000000000000000E+000+0.248287209997012E-001 +0.173700977842713E-001  0.000000000000000E+000+0.774559974953847E-001 +0.467369623047021E-002  0.000000000000000E+000+0.524492410994514E-001 +0.457972145376216E-002  0.000000000000000E+000+0.424538688853401E-001 +0.449146107519883E-002  0.000000000000000E+000+0.624631306950981E-001 +0.456708086287553E-002  0.000000000000000E+000+0.324537891613090E-001 +0.442543162322896E-002  0.000000000000000E+000+0.224558290336793E-001 +0.435877134710853E-002  0.000000000000000E+000+0.323740723540678E-001 +0.216972078724282E-001  0.000000000000000E+000+0.573773859284986E-001 +0.217991888252024E-001  0.000000000000000E+000+0.198976948798363E-001 +0.173400626964691E-001  0.000000000000000E+000+0.962582298363988E-001 +0.110362954798282E-001  0.000000000000000E+000+0.224563524297887E-001 +0.217077368256298E-001  0.000000000000000E+000+0.921069635138181E-001 +0.135809272238655E-001  0.000000000000000E+000+0.923858042830145E-001 +0.440245293971425E-002  0.000000000000000E+000+0.474148725805479E-001 +0.218043592700527E-001  0.000000000000000E+000+0.297698604248976E-001 +0.173792298551515E-001  0.000000000000000E+000+0.734871392924924E-002 +0.128570511094810E-001  0.000000000000000E+000+0.363766117527133E-002 +0.655253480415738E-002  0.000000000000000E+000+0.347814593749260E-001 +0.174396077677385E-001  0.000000000000000E+000+0.964468684680814E-001 +0.193951920109048E-001  0.000000000000000E+000+0.398535820828240E-001 +0.175636784640132E-001  0.000000000000000E+000+0.424210384181232E-001 +0.217811660999173E-001  0.000000000
[...]
      <PointData>
        <DataArray type="Float64" NumberOfComponents="1" Name="T__TempConverged" format="ascii">
           +0.263150000000000E+003 +0.263150000000000E+003 +0.263150000000000E+003 +0.263150000000000E+003 +0.263150000000000E+003 +0.263150000000000E+003 +0.263150000000000E+003 +0.263150000000000E+003 +0.263150000000000E+003 +0.263150000000000E+003 +0.263150000000000E+003 +0.263150000000000E+003 +0.263150000000000E+003 +0.263150000000000E+003 +0.263150000000000E+003 +0.263150000000000E+003 +0.263150000000000E+003 +0.263150000000000E+003 +0.263150000000000E+003 +0.263150000000000E+003 +0.263150000000000E+003 +0.263150000000000E+003 +0.263150000000000E+003 +0.272678051672567E+003 +0.285409849172439E+003 +0.289777156130662E+003 +0.285498154368353E+003 +0.272602812114959E+003 +0.263150000000000E+003 +0.263150000000000E+003 +0.263150000000000E+003 +0.263150000000000E+003 +0.263150000000000E+003 +0.263150000000000E+003 +0.263150000000000E+003 +0.263150000000000E+003 +0.263150000000000E+003 +0.263150000000000E+003 +0.263150000000000E+003 +0.263150000000000E+003 +0.263150000000000E+003 +0.263150000000000E+003 +0.263150000000000E+003 +0.263150000000000E+003 +0.263150000000000E+003 +0.263150000000000E+003 +0.263150000000000E+003 +0.275545599374041E+003 +0.285653211469285E+003 +0.289493829263646E+003 +0.285314340386856E+003 +0.272582627835115E+003 +0.275985355991056E+003 +0.275152628081372E+003 +0.275779453502114E+003 +0.275102755289043E+003 +0.275615850719135E+003 +0.275441321567399E+003 +0.277151498060243E+003 +0.288727098948343E+003 +0.288365467992172E+003 +0.275448146659178E+003 +0.276711300059722E+003 +0.276384216162080E+003 +0.275857415569406E+003 +0.275599287517139E+003 +0.275548320256095E+003 +0.275749594029937E+003 +0.275850014931050E+003 +0.280541951273308E+003 +0.275323190864778E+003 +0.275664674825297E+003 +0.285694962901248E+003 +0.285755927996779E+003 +0.289537154797033E+003 +0.289519435179497E+003 +0.289528998658136E+003 +0.285835976613115E+003 +0.285727927395957E+003 +0.285843377146379E+003 +0.289509144105471E+003 +0.285954838802168E+003 +0.289502927306125E+003 +0.286050839191684E+003 +0.289495775299146E+003 +0.286167981611266E+003 +0.289477509540988E+003 +0.286248263641464E+003 +0.289450527958292E+003 +0.285355860082119E+003 +0.286340917417017E+003 +0.289416112213544E+003 +0.286456598627285E+003 +0.289396620961942E+003 +0.286399839750519E+003 +0.289380777761591E+003 +0.286533677338016E+003 +0.289348617251197E+003 +0.286715141183148E+003 +0.289315117109266E+003 +0.284878288744693E+003 +0.286600190486507E+003 +0.289278778972758E+003 +0.286903134727404E+003 +0.289261040116387E+003 +0.287101433203699E+003 +0.289309342323652E+003 +0.286665962144997E+003 +0.277185820158947E+003 +0.276742899661617E+003 +0.285813262522432E+003 +0.275701123892645E+003 +0.285335166893364E+003 +0.275087184671966E+003 +0.275396011456932E+003 +0.285681291415011E+003 +0.276330926481879E+003 +0.276196737722614E+003 +0.276001803771950E+003 +0.276110948203737E+003 +0.275844398668806E+003 +0.275686397581711E+003 +0.275564303313253E+003 +0.275318437180982E+003 +0.285720791886168E+003 +0.288849277986375E+003 +0.275518999032297E+003 +0.289652276206037E+003 +0.275215720071547E+003 +0.275284363201561E+003 +0.285664587706428E+003 +0.289653176003605E+003 +0.280426130611620E+003 +0.285564854128811E+003 +0.280681894404779E+003 +0.285362916180786E+003 +0.275353451460940E+003 +0.275035203793127E+003 +0.285360142462826E+003 +0.285310737129494E+003 +0.285069338672759E+003 +0.284961641534085E+003 +0.285186939816775E+003 +0.275053353927472E+003 +0.284625390620159E+003 +0.284792308133229E+003 +0.284630482861960E+003 +0.277221509368889E+003 +0.286046318983621E+003 +0.288944616821551E+003 +0.285315732301345E+003 +0.269911904146448E+003 +0.269925338344504E+003 +0.269912346956428E+003 +0.285461731250034E+003
        </DataArray>
        <DataArray type="Float64" NumberOfComponents="1" Name="R__Res" format="ascii">
            0.000000000000000E+000  0.000000000000000E+000  0.000000000000000E+000  0.000000000000000E+000  0.000000000000000E+000  0.000000000000000E+000  0.000000000000000E+000  0.000000000000000E+000  0.000000000000000E+000  0.000000000000000E+000  0.000000000000000E+000  0.000000000000000E+000  0.000000000000000E+000  0.000000000000000E+000  0.000000000000000E+000  0.000000000000000E+000  0.000000000000000E+000  0.000000000000000E+000  0.000000000000000E+000  0.000000000000000E+000  0.000000000000000E+000  0.000000000000000E+000  0.000000000000000E+000 -0.470562228453365E-001 +0.430746255331016E-008 +0.444940378985237E-008 +0.359791563188661E-004 -0.568465076234550E-001  0.000000000000000E+000  0.000000000000000E+000  0.000000000000000E+000  0.000000000000000E+000  0.000000000000000E+000  0.000000000000000E+000  0.000000000000000E+000  0.000000000000000E+000  0.000000000000000E+000  0.000000000000000E+000  0.000000000000000E+000  0.000000000000000E+000  0.000000000000000E+000  0.000000000000000E+000  0.000000000000000E+000  0.000000000000000E+000  0.000000000000000E+000  0.000000000000000E+000  0.000000000000000E+000 -0.278850040535317E-001 +0.432649804871232E-008 +0.365277463831859E-008 +0.452502370571484E-004 -0.594865684644160E-001 -0.152893495263001E+000 -0.183365512551019E+000 -0.156025297202556E+000 -0.187953139783690E+000 -0.157963606667189E+000 -0.160888563351367E+000 -0.146449760934769E+000 +0.776879127695196E-008 +0.756337648066818E-008 -0.160869559158692E+000 -0.143381831432118E+000 -0.148554688902196E+000 -0.154755543685988E+000 -0.156934290060370E+000 -0.158684937986239E+000 -0.167783217366764E+000 -0.145141149247246E+000 -0.230161883497559E-001 -0.111687423157387E+000 -0.168359022562404E+000 +0.868358274175307E-009 +0.105240927084083E-007 +0.119681697885454E-007 +0.991961057739132E-008 +0.126153845148025E-007 +0.744436157162909E-008 +0.113839724313891E-007 +0.340053496472592E-008 +0.844052694404240E-008 +0.895734153516514E-008 +0.716283776736049E-008 +0.917703935066072E-008 +0.167952445839781E-007 +0.537927569155272E-008 +0.984055853470167E-008 +0.940680910943570E-008 +0.135156265623770E-007 +0.202994030473747E-007 +0.117970113677757E-007 +0.111520495060802E-007 +0.132407116382183E-007 +0.236879772463894E-007 +0.907708264108464E-008 +0.818051354434246E-008 +0.949983047782155E-008 +0.127838701846628E-007 +0.138167264296385E-007 +0.948759504293406E-008 +0.918434395202894E-008 +0.758771823150539E-008 +0.157306495607301E-007 +0.786906262373321E-008 +0.306824327056532E-007 +0.226804597325270E-008 +0.844784053821712E-008 +0.890177109802437E-008 -0.134461693282675E+000 -0.143184274627465E+000 +0.232543573286392E-008 -0.156105666033953E+000 +0.381957088180229E-008 -0.111252610690394E+000 -0.159447195400350E+000 +0.100673216429925E-007 -0.146255992156332E+000 -0.150155493868910E+000 -0.153365953339812E+000 -0.149947630104823E+000 -0.155306367688817E+000 -0.157435649668139E+000 -0.159196029157863E+000 -0.162343516133311E+000 +0.890977469580889E-008 -0.489029106098826E-008 -0.158821536305421E+000 +0.110050468737910E-007 -0.114499473021126E+000 -0.162317628511831E+000 -0.317928621207386E-007 +0.132766900806658E-007 -0.227944467223238E-001 -0.131443140816145E-007 -0.231648253214098E-001 -0.160361206535953E-007 -0.161945004845270E+000 -0.209911244438598E+000 -0.238939530383675E-007 -0.521584224699723E-007 -0.312681835978879E-008 -0.826050450264404E-009 -0.162420434879351E-007 -0.205932833239387E+000 -0.280300367361264E-007 +0.281411720592928E-007 +0.248421867521387E-007 -0.119028551202136E+000 -0.347216455587329E-008 -0.107863540321773E-008 -0.250118281641676E-007 +0.509475021615606E-001 +0.673558231097098E-001 +0.698082992572440E-001 +0.285876020633680E-007
        </DataArray>
      </PointData>
    </Piece>
  </UnstructuredGrid>
</VTKFile>
