<?xml version="1.0"?>
<VTKFile type="UnstructuredGrid" version="1.0" byte_order="LittleEndian">
  <UnstructuredGrid>
    <Piece NumberOfPoints="+155" NumberOfCells="+256">
      <Points>
        <DataArray type="Float64" NumberOfComponents="3" Name="Points" format="ascii">
           0.000000000000000E+000  0.000000000000000E+000  0.000000000000000E+000+0.100000000000000E+000  0.000000000000000E+000  0.000000000000000E+000+0.100000000000000E+000 +0.260000000000000E-001  0.000000000000000E+000 0.000000000000000E+000 +0.260000000000000E-001  0.000000000000000E+000+0.499999999999030E-002  0.000000000000000E+000  0.000000000000000E+000+0.999999999998248E-002  0.000000000000000E+000  0.000000000000000E+000+0.149999999999717E-001  0.000000000000000E+000  0.000000000000000E+000+0.199999999999560E-001  0.000000000000000E+000  0.000000000000000E+000+0.249999999999416E-001  0.000000000000000E+000  0.000000000000000E+000+0.299999999999273E-001  0.000000000000000E+000  0.000000000000000E+000+0.349999999999129E-001  0.000000000000000E+000  0.000000000000000E+000+0.399999999998958E-001  0.000000000000000E+000  0.000000000000000E+000+0.449999999998815E-001  0.000000000000000E+000  0.000000000000000E+000+0.499999999998685E-001  0.000000000000000E+000  0.000000000000000E+000+0.549999999998802E-001  0.000000000000000E+000  0.000000000000000E+000+0.599999999998943E-001  0.000000000000000E+000  0.000000000000000E+000+0.649999999999086E-001  0.000000000000000E+000  0.000000000000000E+000+0.699999999999197E-001  0.000000000000000E+000  0.000000000000000E+000+0.749999999999336E-001  0.000000000000000E+000  0.000000000000000E+000+0.799999999999474E-001  0.000000000000000E+000  0.000000000000000E+000+0.849999999999585E-001  0.000000000000000E+000  0.000000000000000E+000+0.899999999999729E-001  0.000000000000000E+000  0.000000000000000E+000+0.949999999999878E-001  0.000000000000000E+000  0.000000000000000E+000+0.100000000000000E+000 +0.433333333332438E-002  0.000000000000000E+000+0.100000000000000E+000 +0.866666666664460E-002  0.000000000000000E+000+0.100000000000000E+000 +0.129999999999662E-001  0.000000000000000E+000+0.100000000000000E+000 +0.173333333333106E-001  0.000000000000000E+000+0.100000000000000E+000 +0.216666666666560E-001  0.000000000000000E+000+0.950000000000138E-001 +0.260000000000000E-001  0.000000000000000E+000+0.900000000000276E-001 +0.260000000000000E-001  0.000000000000000E+000+0.850000000000415E-001 +0.260000000000000E-001  0.000000000000000E+000+0.800000000000553E-001 +0.260000000000000E-001  0.000000000000000E+000+0.750000000000691E-001 +0.260000000000000E-001  0.000000000000000E+000+0.700000000000829E-001 +0.260000000000000E-001  0.000000000000000E+000+0.650000000000968E-001 +0.260000000000000E-001  0.000000000000000E+000+0.600000000001106E-001 +0.260000000000000E-001  0.000000000000000E+000+0.550000000001244E-001 +0.260000000000000E-001  0.000000000000000E+000+0.500000000001369E-001 +0.260000000000000E-001  0.000000000000000E+000+0.450000000001247E-001 +0.260000000000000E-001  0.000000000000000E+000+0.400000000001100E-001 +0.260000000000000E-001  0.000000000000000E+000+0.350000000000951E-001 +0.260000000000000E-001  0.000000000000000E+000+0.300000000000835E-001 +0.260000000000000E-001  0.000000000000000E+000+0.250000000000691E-001 +0.260000000000000E-001  0.000000000000000E+000+0.200000000000548E-001 +0.260000000000000E-001  0.000000000000000E+000+0.150000000000431E-001 +0.260000000000000E-001  0.000000000000000E+000+0.100000000000282E-001 +0.260000000000000E-001  0.000000000000000E+000+0.500000000001274E-002 +0.260000000000000E-001  0.000000000000000E+000 0.000000000000000E+000 +0.216666666666761E-001  0.000000000000000E+000 0.000000000000000E+000 +0.173333333333561E-001  0.000000000000000E+000 0.000000000000000E+000 +0.130000000000335E-001  0.000000000000000E+000 0.000000000000000E+000 +0.866666666668923E-002  0.000000000000000E+000 0.000000000000000E+000 +0.433333333334393E-002  0.000000000000000E+000+0.474770501596061E-001 +0.449457555865549E-002  0.000000000000000E+000+0.624137095822587E-001 +0.218639104185592E-001  0.000000000000000E+000+0.274710820211137E-001 +0.439781066491993E-002  0.000000000000000E+000+0.775162404499768E-001 +0.218822875726493E-001  0.000000000000000E+000+0.175000000000489E-001 +0.216698729810677E-001  0.000000000000000E+000+0.374049377742800E-001 +0.217454153049271E-001  0.000000000000000E+000+0.873299162642599E-001 +0.493503711796043E-002  0.000000000000000E+000+0.962472232502677E-001 +0.151666666666384E-001  0.000000000000000E+000+0.361092965627013E-002 +0.107352657633569E-001  0.000000000000000E+000+0.524222487305538E-001 +0.217494710322139E-001  0.000000000000000E+000+0.724471979965309E-001 +0.480286472974082E-002  0.000000000000000E+000+0.574556233588582E-001 +0.465234046326982E-002  0.000000000000000E+000+0.374775082418216E-001 +0.443588749052796E-002  0.000000000000000E+000+0.174620748440649E-001 +0.432604372433973E-002  0.000000000000000E+000+0.274069445303662E-001 +0.216995189535168E-001  0.000000000000000E+000+0.875000000000345E-001 +0.216698729810898E-001  0.000000000000000E+000+0.768509429014877E-002 +0.215379337211246E-001  0.000000000000000E+000+0.963904321494850E-001 +0.661398939465712E-002  0.000000000000000E+000+0.727642177052906E-002 +0.443011470774208E-002  0.000000000000000E+000+0.124449834836647E-001 +0.431291926454894E-002  0.000000000000000E+000+0.149241258378327E-001 +0.860791945987163E-002  0.000000000000000E+000+0.199074884808963E-001 +0.868183890874860E-002  0.000000000000000E+000+0.173445817427756E-001 +0.129363585197896E-001  0.000000000000000E+000+0.223149927841523E-001 +0.130318645013867E-001  0.000000000000000E+000+0.124626594021863E-001 +0.128806353569139E-001  0.000000000000000E+000+0.148978737522776E-001 +0.172549170089808E-001  0.000000000000000E+000+0.100477085488613E-001 +0.173020481200621E-001  0.000000000000000E+000+0.248943288561033E-001 +0.874693478464290E-002  0.000000000000000E+000+0.273027333778438E-001 +0.131023208673426E-001  0.000000000000000E+000+0.298881968642471E-001 +0.882634524946797E-002  0.000000000000000E+000+0.322939746294813E-001 +0.132008562712349E-001  0.000000000000000E+000+0.348859478408316E-001 +0.889254633445792E-002  0.000000000000000E+000+0.372904969874290E-001 +0.132949678594278E-001  0.000000000000000E+000+0.398845499064174E-001 +0.897728704381017E-002  0.000000000000000E+000+0.422917602893396E-001 +0.133530215891990E-001  0.000000000000000E+000+0.448841050044180E-001 +0.904101635819934E-002  0.000000000000000E+000+0.472915329690292E-001 +0.134187777030845E-001  0.000000000000000E+000+0.448528380708523E-001 +0.175735435605107E-001  0.000000000000000E+000+0.498836917835918E-001 +0.911991320375936E-002  0.000000000000000E+000+0.522874069975051E-001 +0.135507216540452E-001  0.000000000000000E+000+0.548790812949033E-001 +0.921149949688830E-002  0.000000000000000E+000+0.572863231540567E-001 +0.136388959671376E-001  0.000000000000000E+000+0.598790589316415E-001 +0.918407375678816E-002  0.000000000000000E+000+0.623590312841999E-001 +0.136161871876397E-001  0.000000000000000E+000+0.648882846946340E-001 +0.929768835114423E-002  0.000000000000000E+000+0.673708037938968E-001 +0.137654412938815E-001  0.000000000000000E+000+0.698815075929149E-001 +0.944835648181582E-002  0.000000000000000E+000+0.723006618538128E-001 +0.138184730749027E-001  0.000000000000000E+000+0.699048578930071E-001 +0.178446291117357E-001  0.000000000000000E+000+0.748765735527623E-001 +0.937460219893974E-002  0.000000000000000E+000+0.773169545123332E-001 +0.138727132318244E-001  0.000000000000000E+000+0.798463307594286E-001 +0.960013646147148E-002  0.000000000000000E+000+0.823528893119287E-001 +0.139299421283865E-001  0.000000000000000E+000+0.847816044956594E-001 +0.970343309172691E-002  0.000000000000000E+000+0.872193013720580E-001 +0.140356141943716E-001  0.000000000000000E+000+0.894050078821107E-001 +0.926570675087459E-002  0.000000000000000E+000+0.824082332243445E-001 +0.499899823812024E-002  0.000000000000000E+000+0.674500068614159E-001 +0.480706579594959E-002  0.000000000000000E+000+0.102343281449715E-001 +0.864992134013922E-002  0.000000000000000E+000+0.125217794319013E-001 +0.216274619718725E-001  0.000000000000000E+000+0.530727028577484E-002 +0.174243678533301E-001  0.000000000000000E+000+0.927072212021592E-001 +0.216524795078309E-001  0.000000000000000E+000+0.825446721529249E-001 +0.217623324626207E-001  0.000000000000000E+000+0.248287209997012E-001 +0.173700977842713E-001  0.000000000000000E+000+0.774559974953847E-001 +0.467369623047021E-002  0.000000000000000E+000+0.524492410994514E-001 +0.457972145376216E-002  0.000000000000000E+000+0.424538688853401E-001 +0.449146107519883E-002  0.000000000000000E+000+0.624631306950981E-001 +0.456708086287553E-002  0.000000000000000E+000+0.324537891613090E-001 +0.442543162322896E-002  0.000000000000000E+000+0.224558290336793E-001 +0.435877134710853E-002  0.000000000000000E+000+0.323740723540678E-001 +0.216972078724282E-001  0.000000000000000E+000+0.573773859284986E-001 +0.217991888252024E-001  0.000000000000000E+000+0.198976948798363E-001 +0.173400626964691E-001  0.000000000000000E+000+0.962582298363988E-001 +0.110362954798282E-001  0.000000000000000E+000+0.224563524297887E-001 +0.217077368256298E-001  0.000000000000000E+000+0.921069635138181E-001 +0.135809272238655E-001  0.000000000000000E+000+0.923858042830145E-001 +0.440245293971425E-002  0.000000000000000E+000+0.474148725805479E-001 +0.218043592700527E-001  0.000000000000000E+000+0.297698604248976E-001 +0.173792298551515E-001  0.000000000000000E+000+0.734871392924924E-002 +0.128570511094810E-001  0.000000000000000E+000+0.363766117527133E-002 +0.655253480415738E-002  0.000000000000000E+000+0.347814593749260E-001 +0.174396077677385E-001  0.000000000000000E+000+0.964468684680814E-001 +0.193951920109048E-001  0.000000000000000E+000+0.398535820828240E-001 +0.175636784640132E-001  0.000000000000000E+000+0.424210384181232E-001 +0.217811660999173E-001  0.000000000
[...]
      <PointData>
        <DataArray type="Float64" NumberOfComponents="1" Name="T__TempConverged" format="ascii">
           +0.263150000000000E+003 +0.263150000000000E+003 +0.263150000000000E+003 +0.263150000000000E+003 +0.263150000000000E+003 +0.263150000000000E+003 +0.263150000000000E+003 +0.263150000000000E+003 +0.263150000000000E+003 +0.263150000000000E+003 +0.263150000000000E+003 +0.263150000000000E+003 +0.263150000000000E+003 +0.263150000000000E+003 +0.263150000000000E+003 +0.263150000000000E+003 +0.263150000000000E+003 +0.263150000000000E+003 +0.263150000000000E+003 +0.263150000000000E+003 +0.263150000000000E+003 +0.263150000000000E+003 +0.263150000000000E+003 +0.287583400127365E+003 +0.299546785177490E+003 +0.300472437663972E+003 +0.299556927508802E+003 +0.287569196706186E+003 +0.263150000000000E+003 +0.263150000000000E+003 +0.263150000000000E+003 +0.263150000000000E+003 +0.263150000000000E+003 +0.263150000000000E+003 +0.263150000000000E+003 +0.263150000000000E+003 +0.263150000000000E+003 +0.263150000000000E+003 +0.263150000000000E+003 +0.263150000000000E+003 +0.263150000000000E+003 +0.263150000000000E+003 +0.263150000000000E+003 +0.263150000000000E+003 +0.263150000000000E+003 +0.263150000000000E+003 +0.263150000000000E+003 +0.285507815274400E+003 +0.299069567652902E+003 +0.300509029007118E+003 +0.299557103337556E+003 +0.287556564467323E+003 +0.286710365707597E+003 +0.285410120508602E+003 +0.286375782273636E+003 +0.285323098670392E+003 +0.286135792104495E+003 +0.285867897592147E+003 +0.288144598372052E+003 +0.300310414263269E+003 +0.300301109493535E+003 +0.285848310838039E+003 +0.287708485793182E+003 +0.287247534023175E+003 +0.286511459721380E+003 +0.286111690376555E+003 +0.286026198035727E+003 +0.286076908756933E+003 +0.286372758594505E+003 +0.295908436857530E+003 +0.286726456796996E+003 +0.286054244978337E+003 +0.299013455758281E+003 +0.299066179551361E+003 +0.300764247020392E+003 +0.300753996310416E+003 +0.300753751913115E+003 +0.299163612133432E+003 +0.298974479863623E+003 +0.299124686857768E+003 +0.300750473292655E+003 +0.299195584547748E+003 +0.300748776224014E+003 +0.299264891913676E+003 +0.300749055910414E+003 +0.299338108640727E+003 +0.300748327735960E+003 +0.299391431453607E+003 +0.300744518165923E+003 +0.298826524910858E+003 +0.299438742479321E+003 +0.300727407901451E+003 +0.299510677741419E+003 +0.300724022907074E+003 +0.299445972500809E+003 +0.300728299914974E+003 +0.299516069807677E+003 +0.300719082978963E+003 +0.299628304864299E+003 +0.300715871412310E+003 +0.298495572299491E+003 +0.299533312364363E+003 +0.300708272407087E+003 +0.299732329230013E+003 +0.300671022344250E+003 +0.299849532708162E+003 +0.300648707096964E+003 +0.299606258450478E+003 +0.288327634989798E+003 +0.287739429942781E+003 +0.299162427510315E+003 +0.286228257298193E+003 +0.298366437127405E+003 +0.286388845467723E+003 +0.285734165926553E+003 +0.299033717448488E+003 +0.287229528233636E+003 +0.287001395571294E+003 +0.286713022715910E+003 +0.286910949547952E+003 +0.286476307398925E+003 +0.286234543554492E+003 +0.286044562914831E+003 +0.285672096090690E+003 +0.299059097162028E+003 +0.300368085096778E+003 +0.285991800091600E+003 +0.300586109865237E+003 +0.286596318451270E+003 +0.285632153791831E+003 +0.299019491457502E+003 +0.300650588864176E+003 +0.295700717170836E+003 +0.298952752574797E+003 +0.295919266626670E+003 +0.298803099922717E+003 +0.285728001437772E+003 +0.285230497103901E+003 +0.298823074668711E+003 +0.298762788312027E+003 +0.298605358129759E+003 +0.298557289370594E+003 +0.298644314021695E+003 +0.285270102676394E+003 +0.298113441182859E+003 +0.298446737436233E+003 +0.298238080210667E+003 +0.288380192628906E+003 +0.299134825421322E+003 +0.300308963732254E+003 +0.298672555493791E+003 +0.280696205336955E+003 +0.280659373921256E+003 +0.280650348882132E+003 +0.298843986698610E+003
        </DataArray>
        <DataArray type="Float64" NumberOfComponents="1" Name="R__Res" format="ascii">
            0.000000000000000E+000  0.000000000000000E+000  0.000000000000000E+000  0.000000000000000E+000  0.000000000000000E+000  0.000000000000000E+000  0.000000000000000E+000  0.000000000000000E+000  0.000000000000000E+000  0.000000000000000E+000  0.000000000000000E+000  0.000000000000000E+000  0.000000000000000E+000  0.000000000000000E+000  0.000000000000000E+000  0.000000000000000E+000  0.000000000000000E+000  0.000000000000000E+000  0.000000000000000E+000  0.000000000000000E+000  0.000000000000000E+000  0.000000000000000E+000  0.000000000000000E+000 -0.734552751055106E-002 -0.581173886793351E-009 -0.730553187389127E-010 -0.566008684366182E-009 -0.666231173465448E-002  0.000000000000000E+000  0.000000000000000E+000  0.000000000000000E+000  0.000000000000000E+000  0.000000000000000E+000  0.000000000000000E+000  0.000000000000000E+000  0.000000000000000E+000  0.000000000000000E+000  0.000000000000000E+000  0.000000000000000E+000  0.000000000000000E+000  0.000000000000000E+000  0.000000000000000E+000  0.000000000000000E+000  0.000000000000000E+000  0.000000000000000E+000  0.000000000000000E+000  0.000000000000000E+000 -0.901297661230771E-002 -0.863181859322992E-009 -0.956057177869951E-010 -0.574254477303526E-009 -0.668848530887289E-002 -0.270109946299506E-001 -0.347188889130559E-001 -0.290391347740169E-001 -0.354452102921252E-001 -0.302724189233663E-001 -0.320954354176348E-001 -0.202591941839683E-001 -0.390751070389328E-009 -0.395236510186692E-009 -0.321786847189784E-001 -0.221188770287704E-001 -0.246231511349464E-001 -0.281933468184334E-001 -0.304850800265974E-001 -0.307741060810978E-001 -0.307643863273985E-001 -0.239251165042416E-001 -0.971863389764849E-008 -0.243817017297989E-001 -0.308481232515678E-001 +0.159553963374748E-007 -0.140544316185043E-007 -0.646994818831459E-008 -0.443206665812212E-009 -0.627260862695600E-008 -0.153307455619256E-008 -0.140899709677456E-007 +0.347184525573141E-008 -0.215028241878912E-007 -0.131845367956629E-008 +0.263907612430003E-008 -0.151190293617987E-008 -0.117782392172749E-008 -0.740297922963151E-008 -0.885617662538252E-009 +0.215400597358695E-008 -0.170745564909147E-008 -0.337754781920552E-007 -0.129920494362779E-007 +0.365019942050182E-008 -0.262149202345796E-007 -0.183810617282454E-007 -0.917767239982936E-008 +0.512548778419664E-008 -0.141817313448200E-008 -0.362152346999878E-008 -0.506243613696000E-008 +0.337751834833533E-008 +0.539800515397815E-008 -0.157764001862404E-008 -0.854128359706330E-008 -0.277941313298058E-007 -0.117587601877744E-007 -0.464937932598275E-008 +0.151379248025663E-008 -0.127784494097227E-008 -0.192206693845201E-001 -0.221415700809837E-001 +0.502801544843834E-008 -0.291566853639029E-001 -0.159057202964163E-007 -0.256082062647671E-001 -0.322675573490452E-001 -0.137856215332022E-008 -0.233465578153602E-001 -0.255476085344979E-001 -0.273081254723184E-001 -0.253392897612272E-001 -0.285278428687326E-001 -0.298427870022908E-001 -0.310486859174501E-001 -0.331200806411260E-001 +0.336847749693447E-008 -0.389502388675744E-009 -0.308247098927286E-001 -0.690231094502280E-009 -0.243507620658925E-001 -0.331604213886685E-001 -0.232411443423786E-007 -0.324098151371910E-007 +0.610031047898474E-008 +0.366082719693850E-009 +0.302836431487208E-007 +0.482813855562370E-008 -0.327871778009570E-001 -0.360230216228068E-001 -0.391463028659444E-007 +0.130580157797766E-007 +0.145258445272134E-007 +0.467822580674238E-008 +0.260506856086806E-007 -0.353396061830722E-001 +0.147074148415527E-007 -0.213812056948370E-007 +0.169652927262121E-007 -0.164325691927636E-001 +0.374419850679431E-008 -0.870212527037673E-009 -0.159372446351114E-007 -0.357062123417737E-001 -0.348710865756638E-001 -0.348530762655823E-001 +0.350406575977402E-008
        </DataArray>
      </PointData>
    </Piece>
  </UnstructuredGrid>
</VTKFile>
