<?xml version="1.0"?>
<VTKFile type="UnstructuredGrid" version="1.0" byte_order="LittleEndian">
  <UnstructuredGrid>
    <Piece NumberOfPoints="+155" NumberOfCells="+256">
      <Points>
        <DataArray type="Float64" NumberOfComponents="3" Name="Points" format="ascii">
           0.000000000000000E+000  0.000000000000000E+000  0.000000000000000E+000+0.100000000000000E+000  0.000000000000000E+000  0.000000000000000E+000+0.100000000000000E+000 +0.260000000000000E-001  0.000000000000000E+000 0.000000000000000E+000 +0.260000000000000E-001  0.000000000000000E+000+0.499999999999030E-002  0.000000000000000E+000  0.000000000000000E+000+0.999999999998248E-002  0.000000000000000E+000  0.000000000000000E+000+0.149999999999717E-001  0.000000000000000E+000  0.000000000000000E+000+0.199999999999560E-001  0.000000000000000E+000  0.000000000000000E+000+0.249999999999416E-001  0.000000000000000E+000  0.000000000000000E+000+0.299999999999273E-001  0.000000000000000E+000  0.000000000000000E+000+0.349999999999129E-001  0.000000000000000E+000  0.000000000000000E+000+0.399999999998958E-001  0.000000000000000E+000  0.000000000000000E+000+0.449999999998815E-001  0.000000000000000E+000  0.000000000000000E+000+0.499999999998685E-001  0.000000000000000E+000  0.000000000000000E+000+0.549999999998802E-001  0.000000000000000E+000  0.000000000000000E+000+0.599999999998943E-001  0.000000000000000E+000  0.000000000000000E+000+0.649999999999086E-001  0.000000000000000E+000  0.000000000000000E+000+0.699999999999197E-001  0.000000000000000E+000  0.000000000000000E+000+0.749999999999336E-001  0.000000000000000E+000  0.000000000000000E+000+0.799999999999474E-001  0.000000000000000E+000  0.000000000000000E+000+0.849999999999585E-001  0.000000000000000E+000  0.000000000000000E+000+0.899999999999729E-001  0.000000000000000E+000  0.000000000000000E+000+0.949999999999878E-001  0.000000000000000E+000  0.000000000000000E+000+0.100000000000000E+000 +0.433333333332438E-002  0.000000000000000E+000+0.100000000000000E+000 +0.866666666664460E-002  0.000000000000000E+000+0.100000000000000E+000 +0.129999999999662E-001  0.000000000000000E+000+0.100000000000000E+000 +0.173333333333106E-001  0.000000000000000E+000+0.100000000000000E+000 +0.216666666666560E-001  0.000000000000000E+000+0.950000000000138E-001 +0.260000000000000E-001  0.000000000000000E+000+0.900000000000276E-001 +0.260000000000000E-001  0.000000000000000E+000+0.850000000000415E-001 +0.260000000000000E-001  0.000000000000000E+000+0.800000000000553E-001 +0.260000000000000E-001  0.000000000000000E+000+0.750000000000691E-001 +0.260000000000000E-001  0.000000000000000E+000+0.700000000000829E-001 +0.260000000000000E-001  0.000000000000000E+000+0.650000000000968E-001 +0.260000000000000E-001  0.000000000000000E+000+0.600000000001106E-001 +0.260000000000000E-001  0.000000000000000E+000+0.550000000001244E-001 +0.260000000000000E-001  0.000000000000000E+000+0.500000000001369E-001 +0.260000000000000E-001  0.000000000000000E+000+0.450000000001247E-001 +0.260000000000000E-001  0.000000000000000E+000+0.400000000001100E-001 +0.260000000000000E-001  0.000000000000000E+000+0.350000000000951E-001 +0.260000000000000E-001  0.000000000000000E+000+0.300000000000835E-001 +0.260000000000000E-001  0.000000000000000E+000+0.250000000000691E-001 +0.260000000000000E-001  0.000000000000000E+000+0.200000000000548E-001 +0.260000000000000E-001  0.000000000000000E+000+0.150000000000431E-001 +0.260000000000000E-001  0.000000000000000E+000+0.100000000000282E-001 +0.260000000000000E-001  0.000000000000000E+000+0.500000000001274E-002 +0.260000000000000E-001  0.000000000000000E+000 0.000000000000000E+000 +0.216666666666761E-001  0.000000000000000E+000 0.000000000000000E+000 +0.173333333333561E-001  0.000000000000000E+000 0.000000000000000E+000 +0.130000000000335E-001  0.000000000000000E+000 0.000000000000000E+000 +0.866666666668923E-002  0.000000000000000E+000 0.000000000000000E+000 +0.433333333334393E-002  0.000000000000000E+000+0.474770501596061E-001 +0.449457555865549E-002  0.000000000000000E+000+0.624137095822587E-001 +0.218639104185592E-001  0.000000000000000E+000+0.274710820211137E-001 +0.439781066491993E-002  0.000000000000000E+000+0.775162404499768E-001 +0.218822875726493E-001  0.000000000000000E+000+0.175000000000489E-001 +0.216698729810677E-001  0.000000000000000E+000+0.374049377742800E-001 +0.217454153049271E-001  0.000000000000000E+000+0.873299162642599E-001 +0.493503711796043E-002  0.000000000000000E+000+0.962472232502677E-001 +0.151666666666384E-001  0.000000000000000E+000+0.361092965627013E-002 +0.107352657633569E-001  0.000000000000000E+000+0.524222487305538E-001 +0.217494710322139E-001  0.000000000000000E+000+0.724471979965309E-001 +0.480286472974082E-002  0.000000000000000E+000+0.574556233588582E-001 +0.465234046326982E-002  0.000000000000000E+000+0.374775082418216E-001 +0.443588749052796E-002  0.000000000000000E+000+0.174620748440649E-001 +0.432604372433973E-002  0.000000000000000E+000+0.274069445303662E-001 +0.216995189535168E-001  0.000000000000000E+000+0.875000000000345E-001 +0.216698729810898E-001  0.000000000000000E+000+0.768509429014877E-002 +0.215379337211246E-001  0.000000000000000E+000+0.963904321494850E-001 +0.661398939465712E-002  0.000000000000000E+000+0.727642177052906E-002 +0.443011470774208E-002  0.000000000000000E+000+0.124449834836647E-001 +0.431291926454894E-002  0.000000000000000E+000+0.149241258378327E-001 +0.860791945987163E-002  0.000000000000000E+000+0.199074884808963E-001 +0.868183890874860E-002  0.000000000000000E+000+0.173445817427756E-001 +0.129363585197896E-001  0.000000000000000E+000+0.223149927841523E-001 +0.130318645013867E-001  0.000000000000000E+000+0.124626594021863E-001 +0.128806353569139E-001  0.000000000000000E+000+0.148978737522776E-001 +0.172549170089808E-001  0.000000000000000E+000+0.100477085488613E-001 +0.173020481200621E-001  0.000000000000000E+000+0.248943288561033E-001 +0.874693478464290E-002  0.000000000000000E+000+0.273027333778438E-001 +0.131023208673426E-001  0.000000000000000E+000+0.298881968642471E-001 +0.882634524946797E-002  0.000000000000000E+000+0.322939746294813E-001 +0.132008562712349E-001  0.000000000000000E+000+0.348859478408316E-001 +0.889254633445792E-002  0.000000000000000E+000+0.372904969874290E-001 +0.132949678594278E-001  0.000000000000000E+000+0.398845499064174E-001 +0.897728704381017E-002  0.000000000000000E+000+0.422917602893396E-001 +0.133530215891990E-001  0.000000000000000E+000+0.448841050044180E-001 +0.904101635819934E-002  0.000000000000000E+000+0.472915329690292E-001 +0.134187777030845E-001  0.000000000000000E+000+0.448528380708523E-001 +0.175735435605107E-001  0.000000000000000E+000+0.498836917835918E-001 +0.911991320375936E-002  0.000000000000000E+000+0.522874069975051E-001 +0.135507216540452E-001  0.000000000000000E+000+0.548790812949033E-001 +0.921149949688830E-002  0.000000000000000E+000+0.572863231540567E-001 +0.136388959671376E-001  0.000000000000000E+000+0.598790589316415E-001 +0.918407375678816E-002  0.000000000000000E+000+0.623590312841999E-001 +0.136161871876397E-001  0.000000000000000E+000+0.648882846946340E-001 +0.929768835114423E-002  0.000000000000000E+000+0.673708037938968E-001 +0.137654412938815E-001  0.000000000000000E+000+0.698815075929149E-001 +0.944835648181582E-002  0.000000000000000E+000+0.723006618538128E-001 +0.138184730749027E-001  0.000000000000000E+000+0.699048578930071E-001 +0.178446291117357E-001  0.000000000000000E+000+0.748765735527623E-001 +0.937460219893974E-002  0.000000000000000E+000+0.773169545123332E-001 +0.138727132318244E-001  0.000000000000000E+000+0.798463307594286E-001 +0.960013646147148E-002  0.000000000000000E+000+0.823528893119287E-001 +0.139299421283865E-001  0.000000000000000E+000+0.847816044956594E-001 +0.970343309172691E-002  0.000000000000000E+000+0.872193013720580E-001 +0.140356141943716E-001  0.000000000000000E+000+0.894050078821107E-001 +0.926570675087459E-002  0.000000000000000E+000+0.824082332243445E-001 +0.499899823812024E-002  0.000000000000000E+000+0.674500068614159E-001 +0.480706579594959E-002  0.000000000000000E+000+0.102343281449715E-001 +0.864992134013922E-002  0.000000000000000E+000+0.125217794319013E-001 +0.216274619718725E-001  0.000000000000000E+000+0.530727028577484E-002 +0.174243678533301E-001  0.000000000000000E+000+0.927072212021592E-001 +0.216524795078309E-001  0.000000000000000E+000+0.825446721529249E-001 +0.217623324626207E-001  0.000000000000000E+000+0.248287209997012E-001 +0.173700977842713E-001  0.000000000000000E+000+0.774559974953847E-001 +0.467369623047021E-002  0.000000000000000E+000+0.524492410994514E-001 +0.457972145376216E-002  0.000000000000000E+000+0.424538688853401E-001 +0.449146107519883E-002  0.000000000000000E+000+0.624631306950981E-001 +0.456708086287553E-002  0.000000000000000E+000+0.324537891613090E-001 +0.442543162322896E-002  0.000000000000000E+000+0.224558290336793E-001 +0.435877134710853E-002  0.000000000000000E+000+0.323740723540678E-001 +0.216972078724282E-001  0.000000000000000E+000+0.573773859284986E-001 +0.217991888252024E-001  0.000000000000000E+000+0.198976948798363E-001 +0.173400626964691E-001  0.000000000000000E+000+0.962582298363988E-001 +0.110362954798282E-001  0.000000000000000E+000+0.224563524297887E-001 +0.217077368256298E-001  0.000000000000000E+000+0.921069635138181E-001 +0.135809272238655E-001  0.000000000000000E+000+0.923858042830145E-001 +0.440245293971425E-002  0.000000000000000E+000+0.474148725805479E-001 +0.218043592700527E-001  0.000000000000000E+000+0.297698604248976E-001 +0.173792298551515E-001  0.000000000000000E+000+0.734871392924924E-002 +0.128570511094810E-001  0.000000000000000E+000+0.363766117527133E-002 +0.655253480415738E-002  0.000000000000000E+000+0.347814593749260E-001 +0.174396077677385E-001  0.000000000000000E+000+0.964468684680814E-001 +0.193951920109048E-001  0.000000000000000E+000+0.398535820828240E-001 +0.175636784640132E-001  0.000000000000000E+000+0.424210384181232E-001 +0.217811660999173E-001  0.000000000
[...]
      <PointData>
        <DataArray type="Float64" NumberOfComponents="1" Name="T__TempConverged" format="ascii">
           +0.263150000000000E+003 +0.263150000000000E+003 +0.263150000000000E+003 +0.263150000000000E+003 +0.263150000000000E+003 +0.263150000000000E+003 +0.263150000000000E+003 +0.263150000000000E+003 +0.263150000000000E+003 +0.263150000000000E+003 +0.263150000000000E+003 +0.263150000000000E+003 +0.263150000000000E+003 +0.263150000000000E+003 +0.263150000000000E+003 +0.263150000000000E+003 +0.263150000000000E+003 +0.263150000000000E+003 +0.263150000000000E+003 +0.263150000000000E+003 +0.263150000000000E+003 +0.263150000000000E+003 +0.263150000000000E+003 +0.281565298611265E+003 +0.294961393447042E+003 +0.299028723905286E+003 +0.295024677636020E+003 +0.281592743519771E+003 +0.263150000000000E+003 +0.263150000000000E+003 +0.263150000000000E+003 +0.263150000000000E+003 +0.263150000000000E+003 +0.263150000000000E+003 +0.263150000000000E+003 +0.263150000000000E+003 +0.263150000000000E+003 +0.263150000000000E+003 +0.263150000000000E+003 +0.263150000000000E+003 +0.263150000000000E+003 +0.263150000000000E+003 +0.263150000000000E+003 +0.263150000000000E+003 +0.263150000000000E+003 +0.263150000000000E+003 +0.263150000000000E+003 +0.279812250273258E+003 +0.294363195581060E+003 +0.298814333261973E+003 +0.294967334492581E+003 +0.281576670230309E+003 +0.281076358454272E+003 +0.280017635866049E+003 +0.280803176776730E+003 +0.279951764826091E+003 +0.280601760888544E+003 +0.280379379176661E+003 +0.282411323351823E+003 +0.297963437033927E+003 +0.297729571038593E+003 +0.280378345003667E+003 +0.281980938606272E+003 +0.281558245491275E+003 +0.280909535558954E+003 +0.280586657438472E+003 +0.280516066052041E+003 +0.280597357388919E+003 +0.280941197334010E+003 +0.289720640185869E+003 +0.281246794119531E+003 +0.280529713312383E+003 +0.294520121478523E+003 +0.294622837823543E+003 +0.298962400073164E+003 +0.298945136138441E+003 +0.298905221418637E+003 +0.294725804304299E+003 +0.294528248026668E+003 +0.294725952244855E+003 +0.298932715507023E+003 +0.294858327611417E+003 +0.298927519880596E+003 +0.294974783883323E+003 +0.298923803188833E+003 +0.295113587046004E+003 +0.298910489939577E+003 +0.295211034935824E+003 +0.298886411679616E+003 +0.294169409790663E+003 +0.295321760153710E+003 +0.298849967959321E+003 +0.295460550098534E+003 +0.298834886983472E+003 +0.295384547091650E+003 +0.298826881751662E+003 +0.295542283024678E+003 +0.298802020060684E+003 +0.295761004097045E+003 +0.298774759784137E+003 +0.293625620024151E+003 +0.295613708481842E+003 +0.298733535981587E+003 +0.295975413170921E+003 +0.298680737482072E+003 +0.296176067520284E+003 +0.298642179455808E+003 +0.295632665076634E+003 +0.282578925186144E+003 +0.282011954593036E+003 +0.294725175733181E+003 +0.280698674923112E+003 +0.293927175116599E+003 +0.280964601487476E+003 +0.280322216419845E+003 +0.294542694240933E+003 +0.281542266820603E+003 +0.281336400057787E+003 +0.281083435533491E+003 +0.281253998268974E+003 +0.280885181489677E+003 +0.280684668409720E+003 +0.280529030345456E+003 +0.280227072650321E+003 +0.294592381611552E+003 +0.298099758664854E+003 +0.280484921263960E+003 +0.298872096895868E+003 +0.281072968827042E+003 +0.280189409680149E+003 +0.294520323852300E+003 +0.298953243485670E+003 +0.289536570748200E+003 +0.294403424473906E+003 +0.289767532568517E+003 +0.294163495744580E+003 +0.280269910441678E+003 +0.279872668764328E+003 +0.294170972602203E+003 +0.294104226245414E+003 +0.293828333453792E+003 +0.293718592370592E+003 +0.293923449877691E+003 +0.279904893047541E+003 +0.293190626766387E+003 +0.293529363018034E+003 +0.293296903148632E+003 +0.282655075992260E+003 +0.295065134939289E+003 +0.298149625428874E+003 +0.294235276171120E+003 +0.276175121797353E+003 +0.276141323216286E+003 +0.276135408179085E+003 +0.294496853885377E+003
        </DataArray>
        <DataArray type="Float64" NumberOfComponents="1" Name="R__Res" format="ascii">
            0.000000000000000E+000  0.000000000000000E+000  0.000000000000000E+000  0.000000000000000E+000  0.000000000000000E+000  0.000000000000000E+000  0.000000000000000E+000  0.000000000000000E+000  0.000000000000000E+000  0.000000000000000E+000  0.000000000000000E+000  0.000000000000000E+000  0.000000000000000E+000  0.000000000000000E+000  0.000000000000000E+000  0.000000000000000E+000  0.000000000000000E+000  0.000000000000000E+000  0.000000000000000E+000  0.000000000000000E+000  0.000000000000000E+000  0.000000000000000E+000  0.000000000000000E+000 -0.713029558080850E-001 +0.263540833600473E-008 +0.217672435631755E-008 +0.256635629414248E-008 -0.697707463792169E-001  0.000000000000000E+000  0.000000000000000E+000  0.000000000000000E+000  0.000000000000000E+000  0.000000000000000E+000  0.000000000000000E+000  0.000000000000000E+000  0.000000000000000E+000  0.000000000000000E+000  0.000000000000000E+000  0.000000000000000E+000  0.000000000000000E+000  0.000000000000000E+000  0.000000000000000E+000  0.000000000000000E+000  0.000000000000000E+000  0.000000000000000E+000  0.000000000000000E+000  0.000000000000000E+000 -0.587647908402951E-001 +0.360452490077989E-008 +0.195224839072417E-008 +0.259474058905695E-008 -0.703095974454288E-001 -0.300751911217827E+000 -0.311695947260285E+000 -0.302634618828133E+000 -0.313895380128148E+000 -0.303896190814206E+000 -0.308094292006145E+000 -0.278860423295320E+000 +0.440386838107543E-008 +0.411348521911492E-008 -0.305832742199295E+000 -0.289849766825379E+000 -0.294780167497576E+000 -0.302214393737589E+000 -0.305015975463260E+000 -0.304193446577382E+000 -0.300250117045536E+000 -0.276460400932545E+000 +0.133404221003275E-007 -0.288336124788499E+000 -0.304635871064628E+000 +0.510275377507696E-009 +0.135905362519395E-007 +0.928823684631652E-008 +0.624813878413732E-008 +0.911349895549307E-008 +0.697303792485116E-008 +0.174284937592972E-007 +0.478043915563831E-008 +0.152535863939818E-007 +0.727274596101779E-008 +0.198833882691929E-008 +0.709716729829779E-008 +0.688326950992746E-008 +0.895666296685249E-008 +0.723781368172638E-008 +0.518163889573486E-008 +0.847832870576326E-008 +0.248573863714796E-007 +0.112050844158773E-007 +0.443083880696804E-008 +0.190895332874419E-007 +0.160738891086254E-007 +0.101253050388550E-007 +0.386956350295620E-008 +0.716406911571710E-008 +0.695283319807061E-008 +0.982574821506432E-008 +0.552916157303684E-008 +0.124526289280169E-007 +0.615774009560255E-008 +0.124345393981429E-007 +0.180850081576978E-007 +0.513134190693876E-008 +0.140303674234232E-007 +0.408276190633217E-008 +0.645177578029177E-008 -0.279017312427673E+000 -0.288577078197253E+000 +0.482657636080575E-008 -0.299115012002801E+000 +0.360333451965289E-008 -0.292054715770998E+000 -0.304301982174525E+000 +0.106889006534772E-007 -0.295525401509126E+000 -0.297033372082213E+000 -0.300290242359429E+000 -0.299010750126300E+000 -0.302145073467210E+000 -0.304009987305353E+000 -0.305356483927374E+000 -0.308338140569025E+000 -0.350404794069448E-008 +0.456409521287782E-008 -0.304620987154145E+000 +0.243547113587539E-007 -0.296888697078000E+000 -0.309342014524736E+000 +0.166727571748737E-007 +0.269331187907618E-007 -0.392486043665485E-011 +0.184511028678003E-008 -0.186380204603154E-007 +0.132066229063810E-007 -0.308693581695419E+000 -0.314412944677144E+000 +0.192427114242832E-007 +0.233689112505431E-008 -0.679845602036266E-008 +0.188357818231566E-007 +0.177719641225593E-007 -0.311938570982027E+000 -0.167711289300598E-007 +0.508601138982101E-007 -0.117322280779319E-007 -0.244615106258734E+000 +0.181053578240942E-007 +0.333676364316915E-008 +0.397566868315380E-009 -0.454863103584099E+000 -0.447719347413519E+000 -0.448527736241658E+000 +0.382886056193854E-009
        </DataArray>
      </PointData>
    </Piece>
  </UnstructuredGrid>
</VTKFile>
