<?xml version="1.0"?>
<VTKFile type="UnstructuredGrid" version="1.0" byte_order="LittleEndian">
  <UnstructuredGrid>
    <Piece NumberOfPoints="+155" NumberOfCells="+256">
      <Points>
        <DataArray type="Float64" NumberOfComponents="3" Name="Points" format="ascii">
           0.000000000000000E+000  0.000000000000000E+000  0.000000000000000E+000+0.100000000000000E+000  0.000000000000000E+000  0.000000000000000E+000+0.100000000000000E+000 +0.260000000000000E-001  0.000000000000000E+000 0.000000000000000E+000 +0.260000000000000E-001  0.000000000000000E+000+0.499999999999030E-002  0.000000000000000E+000  0.000000000000000E+000+0.999999999998248E-002  0.000000000000000E+000  0.000000000000000E+000+0.149999999999717E-001  0.000000000000000E+000  0.000000000000000E+000+0.199999999999560E-001  0.000000000000000E+000  0.000000000000000E+000+0.249999999999416E-001  0.000000000000000E+000  0.000000000000000E+000+0.299999999999273E-001  0.000000000000000E+000  0.000000000000000E+000+0.349999999999129E-001  0.000000000000000E+000  0.000000000000000E+000+0.399999999998958E-001  0.000000000000000E+000  0.000000000000000E+000+0.449999999998815E-001  0.000000000000000E+000  0.000000000000000E+000+0.499999999998685E-001  0.000000000000000E+000  0.000000000000000E+000+0.549999999998802E-001  0.000000000000000E+000  0.000000000000000E+000+0.599999999998943E-001  0.000000000000000E+000  0.000000000000000E+000+0.649999999999086E-001  0.000000000000000E+000  0.000000000000000E+000+0.699999999999197E-001  0.000000000000000E+000  0.000000000000000E+000+0.749999999999336E-001  0.000000000000000E+000  0.000000000000000E+000+0.799999999999474E-001  0.000000000000000E+000  0.000000000000000E+000+0.849999999999585E-001  0.000000000000000E+000  0.000000000000000E+000+0.899999999999729E-001  0.000000000000000E+000  0.000000000000000E+000+0.949999999999878E-001  0.000000000000000E+000  0.000000000000000E+000+0.100000000000000E+000 +0.433333333332438E-002  0.000000000000000E+000+0.100000000000000E+000 +0.866666666664460E-002  0.000000000000000E+000+0.100000000000000E+000 +0.129999999999662E-001  0.000000000000000E+000+0.100000000000000E+000 +0.173333333333106E-001  0.000000000000000E+000+0.100000000000000E+000 +0.216666666666560E-001  0.000000000000000E+000+0.950000000000138E-001 +0.260000000000000E-001  0.000000000000000E+000+0.900000000000276E-001 +0.260000000000000E-001  0.000000000000000E+000+0.850000000000415E-001 +0.260000000000000E-001  0.000000000000000E+000+0.800000000000553E-001 +0.260000000000000E-001  0.000000000000000E+000+0.750000000000691E-001 +0.260000000000000E-001  0.000000000000000E+000+0.700000000000829E-001 +0.260000000000000E-001  0.000000000000000E+000+0.650000000000968E-001 +0.260000000000000E-001  0.000000000000000E+000+0.600000000001106E-001 +0.260000000000000E-001  0.000000000000000E+000+0.550000000001244E-001 +0.260000000000000E-001  0.000000000000000E+000+0.500000000001369E-001 +0.260000000000000E-001  0.000000000000000E+000+0.450000000001247E-001 +0.260000000000000E-001  0.000000000000000E+000+0.400000000001100E-001 +0.260000000000000E-001  0.000000000000000E+000+0.350000000000951E-001 +0.260000000000000E-001  0.000000000000000E+000+0.300000000000835E-001 +0.260000000000000E-001  0.000000000000000E+000+0.250000000000691E-001 +0.260000000000000E-001  0.000000000000000E+000+0.200000000000548E-001 +0.260000000000000E-001  0.000000000000000E+000+0.150000000000431E-001 +0.260000000000000E-001  0.000000000000000E+000+0.100000000000282E-001 +0.260000000000000E-001  0.000000000000000E+000+0.500000000001274E-002 +0.260000000000000E-001  0.000000000000000E+000 0.000000000000000E+000 +0.216666666666761E-001  0.000000000000000E+000 0.000000000000000E+000 +0.173333333333561E-001  0.000000000000000E+000 0.000000000000000E+000 +0.130000000000335E-001  0.000000000000000E+000 0.000000000000000E+000 +0.866666666668923E-002  0.000000000000000E+000 0.000000000000000E+000 +0.433333333334393E-002  0.000000000000000E+000+0.474770501596061E-001 +0.449457555865549E-002  0.000000000000000E+000+0.624137095822587E-001 +0.218639104185592E-001  0.000000000000000E+000+0.274710820211137E-001 +0.439781066491993E-002  0.000000000000000E+000+0.775162404499768E-001 +0.218822875726493E-001  0.000000000000000E+000+0.175000000000489E-001 +0.216698729810677E-001  0.000000000000000E+000+0.374049377742800E-001 +0.217454153049271E-001  0.000000000000000E+000+0.873299162642599E-001 +0.493503711796043E-002  0.000000000000000E+000+0.962472232502677E-001 +0.151666666666384E-001  0.000000000000000E+000+0.361092965627013E-002 +0.107352657633569E-001  0.000000000000000E+000+0.524222487305538E-001 +0.217494710322139E-001  0.000000000000000E+000+0.724471979965309E-001 +0.480286472974082E-002  0.000000000000000E+000+0.574556233588582E-001 +0.465234046326982E-002  0.000000000000000E+000+0.374775082418216E-001 +0.443588749052796E-002  0.000000000000000E+000+0.174620748440649E-001 +0.432604372433973E-002  0.000000000000000E+000+0.274069445303662E-001 +0.216995189535168E-001  0.000000000000000E+000+0.875000000000345E-001 +0.216698729810898E-001  0.000000000000000E+000+0.768509429014877E-002 +0.215379337211246E-001  0.000000000000000E+000+0.963904321494850E-001 +0.661398939465712E-002  0.000000000000000E+000+0.727642177052906E-002 +0.443011470774208E-002  0.000000000000000E+000+0.124449834836647E-001 +0.431291926454894E-002  0.000000000000000E+000+0.149241258378327E-001 +0.860791945987163E-002  0.000000000000000E+000+0.199074884808963E-001 +0.868183890874860E-002  0.000000000000000E+000+0.173445817427756E-001 +0.129363585197896E-001  0.000000000000000E+000+0.223149927841523E-001 +0.130318645013867E-001  0.000000000000000E+000+0.124626594021863E-001 +0.128806353569139E-001  0.000000000000000E+000+0.148978737522776E-001 +0.172549170089808E-001  0.000000000000000E+000+0.100477085488613E-001 +0.173020481200621E-001  0.000000000000000E+000+0.248943288561033E-001 +0.874693478464290E-002  0.000000000000000E+000+0.273027333778438E-001 +0.131023208673426E-001  0.000000000000000E+000+0.298881968642471E-001 +0.882634524946797E-002  0.000000000000000E+000+0.322939746294813E-001 +0.132008562712349E-001  0.000000000000000E+000+0.348859478408316E-001 +0.889254633445792E-002  0.000000000000000E+000+0.372904969874290E-001 +0.132949678594278E-001  0.000000000000000E+000+0.398845499064174E-001 +0.897728704381017E-002  0.000000000000000E+000+0.422917602893396E-001 +0.133530215891990E-001  0.000000000000000E+000+0.448841050044180E-001 +0.904101635819934E-002  0.000000000000000E+000+0.472915329690292E-001 +0.134187777030845E-001  0.000000000000000E+000+0.448528380708523E-001 +0.175735435605107E-001  0.000000000000000E+000+0.498836917835918E-001 +0.911991320375936E-002  0.000000000000000E+000+0.522874069975051E-001 +0.135507216540452E-001  0.000000000000000E+000+0.548790812949033E-001 +0.921149949688830E-002  0.000000000000000E+000+0.572863231540567E-001 +0.136388959671376E-001  0.000000000000000E+000+0.598790589316415E-001 +0.918407375678816E-002  0.000000000000000E+000+0.623590312841999E-001 +0.136161871876397E-001  0.000000000000000E+000+0.648882846946340E-001 +0.929768835114423E-002  0.000000000000000E+000+0.673708037938968E-001 +0.137654412938815E-001  0.000000000000000E+000+0.698815075929149E-001 +0.944835648181582E-002  0.000000000000000E+000+0.723006618538128E-001 +0.138184730749027E-001  0.000000000000000E+000+0.699048578930071E-001 +0.178446291117357E-001  0.000000000000000E+000+0.748765735527623E-001 +0.937460219893974E-002  0.000000000000000E+000+0.773169545123332E-001 +0.138727132318244E-001  0.000000000000000E+000+0.798463307594286E-001 +0.960013646147148E-002  0.000000000000000E+000+0.823528893119287E-001 +0.139299421283865E-001  0.000000000000000E+000+0.847816044956594E-001 +0.970343309172691E-002  0.000000000000000E+000+0.872193013720580E-001 +0.140356141943716E-001  0.000000000000000E+000+0.894050078821107E-001 +0.926570675087459E-002  0.000000000000000E+000+0.824082332243445E-001 +0.499899823812024E-002  0.000000000000000E+000+0.674500068614159E-001 +0.480706579594959E-002  0.000000000000000E+000+0.102343281449715E-001 +0.864992134013922E-002  0.000000000000000E+000+0.125217794319013E-001 +0.216274619718725E-001  0.000000000000000E+000+0.530727028577484E-002 +0.174243678533301E-001  0.000000000000000E+000+0.927072212021592E-001 +0.216524795078309E-001  0.000000000000000E+000+0.825446721529249E-001 +0.217623324626207E-001  0.000000000000000E+000+0.248287209997012E-001 +0.173700977842713E-001  0.000000000000000E+000+0.774559974953847E-001 +0.467369623047021E-002  0.000000000000000E+000+0.524492410994514E-001 +0.457972145376216E-002  0.000000000000000E+000+0.424538688853401E-001 +0.449146107519883E-002  0.000000000000000E+000+0.624631306950981E-001 +0.456708086287553E-002  0.000000000000000E+000+0.324537891613090E-001 +0.442543162322896E-002  0.000000000000000E+000+0.224558290336793E-001 +0.435877134710853E-002  0.000000000000000E+000+0.323740723540678E-001 +0.216972078724282E-001  0.000000000000000E+000+0.573773859284986E-001 +0.217991888252024E-001  0.000000000000000E+000+0.198976948798363E-001 +0.173400626964691E-001  0.000000000000000E+000+0.962582298363988E-001 +0.110362954798282E-001  0.000000000000000E+000+0.224563524297887E-001 +0.217077368256298E-001  0.000000000000000E+000+0.921069635138181E-001 +0.135809272238655E-001  0.000000000000000E+000+0.923858042830145E-001 +0.440245293971425E-002  0.000000000000000E+000+0.474148725805479E-001 +0.218043592700527E-001  0.000000000000000E+000+0.297698604248976E-001 +0.173792298551515E-001  0.000000000000000E+000+0.734871392924924E-002 +0.128570511094810E-001  0.000000000000000E+000+0.363766117527133E-002 +0.655253480415738E-002  0.000000000000000E+000+0.347814593749260E-001 +0.174396077677385E-001  0.000000000000000E+000+0.964468684680814E-001 +0.193951920109048E-001  0.000000000000000E+000+0.398535820828240E-001 +0.175636784640132E-001  0.000000000000000E+000+0.424210384181232E-001 +0.217811660999173E-001  0.000000000
[...]
      <PointData>
        <DataArray type="Float64" NumberOfComponents="1" Name="T__TempConverged" format="ascii">
           +0.263150000000000E+003 +0.263150000000000E+003 +0.263150000000000E+003 +0.263150000000000E+003 +0.263150000000000E+003 +0.263150000000000E+003 +0.263150000000000E+003 +0.263150000000000E+003 +0.263150000000000E+003 +0.263150000000000E+003 +0.263150000000000E+003 +0.263150000000000E+003 +0.263150000000000E+003 +0.263150000000000E+003 +0.263150000000000E+003 +0.263150000000000E+003 +0.263150000000000E+003 +0.263150000000000E+003 +0.263150000000000E+003 +0.263150000000000E+003 +0.263150000000000E+003 +0.263150000000000E+003 +0.263150000000000E+003 +0.272879508659968E+003 +0.285985784679712E+003 +0.290344124120500E+003 +0.286055667088752E+003 +0.272737366674044E+003 +0.263150000000000E+003 +0.263150000000000E+003 +0.263150000000000E+003 +0.263150000000000E+003 +0.263150000000000E+003 +0.263150000000000E+003 +0.263150000000000E+003 +0.263150000000000E+003 +0.263150000000000E+003 +0.263150000000000E+003 +0.263150000000000E+003 +0.263150000000000E+003 +0.263150000000000E+003 +0.263150000000000E+003 +0.263150000000000E+003 +0.263150000000000E+003 +0.263150000000000E+003 +0.263150000000000E+003 +0.263150000000000E+003 +0.275701725418629E+003 +0.286086895778877E+003 +0.290042155544716E+003 +0.285871146857864E+003 +0.272720254381734E+003 +0.276188850844408E+003 +0.275345986623427E+003 +0.275980403551525E+003 +0.275295785712884E+003 +0.275815209964385E+003 +0.275638262226520E+003 +0.277371268020591E+003 +0.289289455128707E+003 +0.288930278659649E+003 +0.275645361776180E+003 +0.276920981963872E+003 +0.276591191218555E+003 +0.276059419790582E+003 +0.275795876451086E+003 +0.275746982098740E+003 +0.275957748642086E+003 +0.276055905748414E+003 +0.281164757700058E+003 +0.275511194690151E+003 +0.275872178706988E+003 +0.286143975880395E+003 +0.286208559885644E+003 +0.290075138054909E+003 +0.290058767006061E+003 +0.290065937756215E+003 +0.286290070689824E+003 +0.286176096822273E+003 +0.286298026679056E+003 +0.290048033686310E+003 +0.286411506362447E+003 +0.290041725038544E+003 +0.286509529835228E+003 +0.290034682876064E+003 +0.286629025648620E+003 +0.290016390441949E+003 +0.286710925935064E+003 +0.289989043169717E+003 +0.285802736901533E+003 +0.286805230376596E+003 +0.289953897565943E+003 +0.286922570440131E+003 +0.289934432223186E+003 +0.286864769988457E+003 +0.289919009963244E+003 +0.287000854781677E+003 +0.289886758217779E+003 +0.287185103381264E+003 +0.289852831831860E+003 +0.285317446689839E+003 +0.287068689792232E+003 +0.289815698384114E+003 +0.287376293127786E+003 +0.289792662147856E+003 +0.287574102650732E+003 +0.289838798649103E+003 +0.287147015142446E+003 +0.277396305187733E+003 +0.276952800513340E+003 +0.286290597406967E+003 +0.275901413376041E+003 +0.285765942541968E+003 +0.275271875538325E+003 +0.275590263879484E+003 +0.286133716075221E+003 +0.276539062132134E+003 +0.276402332199427E+003 +0.276205254469232E+003 +0.276316165798525E+003 +0.276046153320009E+003 +0.275886811180399E+003 +0.275762813735691E+003 +0.275514128180645E+003 +0.286173813676883E+003 +0.289426110881661E+003 +0.275717416958459E+003 +0.290189748328481E+003 +0.275413691348686E+003 +0.275479541434237E+003 +0.286116542961156E+003 +0.290193887367954E+003 +0.281109276387269E+003 +0.286014881939880E+003 +0.281365433682670E+003 +0.285809148435468E+003 +0.275549461316261E+003 +0.275227715671913E+003 +0.285807057601659E+003 +0.285756587018484E+003 +0.285510917032785E+003 +0.285402101518855E+003 +0.285647324752336E+003 +0.275246573887663E+003 +0.285050115392271E+003 +0.285229373018959E+003 +0.285061421190793E+003 +0.277440115021703E+003 +0.286581192612993E+003 +0.289469942010662E+003 +0.285838091453541E+003 +0.270010877187164E+003 +0.270055904478984E+003 +0.270045590461303E+003 +0.285995028341871E+003
        </DataArray>
        <DataArray type="Float64" NumberOfComponents="1" Name="R__Res" format="ascii">
            0.000000000000000E+000  0.000000000000000E+000  0.000000000000000E+000  0.000000000000000E+000  0.000000000000000E+000  0.000000000000000E+000  0.000000000000000E+000  0.000000000000000E+000  0.000000000000000E+000  0.000000000000000E+000  0.000000000000000E+000  0.000000000000000E+000  0.000000000000000E+000  0.000000000000000E+000  0.000000000000000E+000  0.000000000000000E+000  0.000000000000000E+000  0.000000000000000E+000  0.000000000000000E+000  0.000000000000000E+000  0.000000000000000E+000  0.000000000000000E+000  0.000000000000000E+000 -0.322773039420236E-001 +0.466442534596823E-008 +0.472913891380600E-008 +0.908394634968612E-005 -0.402774130996630E-001  0.000000000000000E+000  0.000000000000000E+000  0.000000000000000E+000  0.000000000000000E+000  0.000000000000000E+000  0.000000000000000E+000  0.000000000000000E+000  0.000000000000000E+000  0.000000000000000E+000  0.000000000000000E+000  0.000000000000000E+000  0.000000000000000E+000  0.000000000000000E+000  0.000000000000000E+000  0.000000000000000E+000  0.000000000000000E+000  0.000000000000000E+000  0.000000000000000E+000  0.000000000000000E+000 -0.282696113565977E-001 +0.471212935337917E-008 +0.393610943838496E-008 +0.118254174463761E-004 -0.427317498798612E-001 -0.156715209839723E+000 -0.169704766861446E+000 -0.160085302633037E+000 -0.171172210032335E+000 -0.162228063181129E+000 -0.165390010611842E+000 -0.149459927592361E+000 +0.860775595246110E-008 +0.806202693492963E-008 -0.165342142642796E+000 -0.146220024321737E+000 -0.151841549606523E+000 -0.158732359234175E+000 -0.161001803141087E+000 -0.163021336249954E+000 -0.173042628637401E+000 -0.148900083445510E+000 -0.292270930242791E-001 -0.106694238640695E+000 -0.173779212911878E+000 +0.759905915970194E-009 +0.114710572152177E-007 +0.131772894818027E-007 +0.107112466674053E-007 +0.139259542786263E-007 +0.806671618391874E-008 +0.129867234743841E-007 +0.409889411301378E-008 +0.967316271527352E-008 +0.100256791757403E-007 +0.790868237565689E-008 +0.100091532839741E-007 +0.181816310895755E-007 +0.593179283470135E-008 +0.108322230629732E-007 +0.101470301050455E-007 +0.144571614124622E-007 +0.216147616471929E-007 +0.129484540867253E-007 +0.124475912910427E-007 +0.113111753297090E-007 +0.235576373963653E-007 +0.100385366685884E-007 +0.897304019975564E-008 +0.103569697262884E-007 +0.136961333385699E-007 +0.150377155172521E-007 +0.110012208232035E-007 +0.111862969998100E-007 +0.776339881269905E-008 +0.165914210148443E-007 +0.933359567412140E-008 +0.326188036581243E-007 +0.270454203477044E-008 +0.924107257382900E-008 +0.966736135588064E-008 -0.136353734530672E+000 -0.145970068464632E+000 +0.198585481392399E-008 -0.160207428462211E+000 +0.398166921655729E-008 -0.106211123477588E+000 -0.163742123884957E+000 +0.106425361856566E-007 -0.149772358321229E+000 -0.153695162933508E+000 -0.157161424658816E+000 -0.153643296722462E+000 -0.159300964908434E+000 -0.161675278398268E+000 -0.163532598474597E+000 -0.166980212448492E+000 +0.125077637136428E-007 -0.282251022554192E-008 -0.163194678232836E+000 +0.118295477857799E-007 -0.115069828651423E+000 -0.166992354601490E+000 -0.343649535494706E-007 +0.887824541662141E-008 -0.312634599218415E-001 -0.587698467668929E-008 -0.316722267069856E-001 -0.165688354147875E-007 -0.166555651563003E+000 -0.171793448173718E+000 -0.244800593129924E-007 -0.418167529492308E-007 -0.701998326135822E-008 -0.182675807813837E-008 -0.193938730630450E-007 -0.170626746852099E+000 -0.301899851784526E-007 +0.281996679341034E-007 +0.243477509265233E-007 -0.120859897180210E+000 -0.400784622156536E-008 +0.107657266434913E-008 -0.276029124002264E-007 +0.589475737930876E-001 +0.803393325103938E-001 +0.830310844603348E-001 +0.307491497819612E-007
        </DataArray>
      </PointData>
    </Piece>
  </UnstructuredGrid>
</VTKFile>
