<?xml version="1.0"?>
<VTKFile type="UnstructuredGrid" version="1.0" byte_order="LittleEndian">
  <UnstructuredGrid>
    <Piece NumberOfPoints="+155" NumberOfCells="+256">
      <Points>
        <DataArray type="Float64" NumberOfComponents="3" Name="Points" format="ascii">
           0.000000000000000E+000  0.000000000000000E+000  0.000000000000000E+000+0.100000000000000E+000  0.000000000000000E+000  0.000000000000000E+000+0.100000000000000E+000 +0.260000000000000E-001  0.000000000000000E+000 0.000000000000000E+000 +0.260000000000000E-001  0.000000000000000E+000+0.499999999999030E-002  0.000000000000000E+000  0.000000000000000E+000+0.999999999998248E-002  0.000000000000000E+000  0.000000000000000E+000+0.149999999999717E-001  0.000000000000000E+000  0.000000000000000E+000+0.199999999999560E-001  0.000000000000000E+000  0.000000000000000E+000+0.249999999999416E-001  0.000000000000000E+000  0.000000000000000E+000+0.299999999999273E-001  0.000000000000000E+000  0.000000000000000E+000+0.349999999999129E-001  0.000000000000000E+000  0.000000000000000E+000+0.399999999998958E-001  0.000000000000000E+000  0.000000000000000E+000+0.449999999998815E-001  0.000000000000000E+000  0.000000000000000E+000+0.499999999998685E-001  0.000000000000000E+000  0.000000000000000E+000+0.549999999998802E-001  0.000000000000000E+000  0.000000000000000E+000+0.599999999998943E-001  0.000000000000000E+000  0.000000000000000E+000+0.649999999999086E-001  0.000000000000000E+000  0.000000000000000E+000+0.699999999999197E-001  0.000000000000000E+000  0.000000000000000E+000+0.749999999999336E-001  0.000000000000000E+000  0.000000000000000E+000+0.799999999999474E-001  0.000000000000000E+000  0.000000000000000E+000+0.849999999999585E-001  0.000000000000000E+000  0.000000000000000E+000+0.899999999999729E-001  0.000000000000000E+000  0.000000000000000E+000+0.949999999999878E-001  0.000000000000000E+000  0.000000000000000E+000+0.100000000000000E+000 +0.433333333332438E-002  0.000000000000000E+000+0.100000000000000E+000 +0.866666666664460E-002  0.000000000000000E+000+0.100000000000000E+000 +0.129999999999662E-001  0.000000000000000E+000+0.100000000000000E+000 +0.173333333333106E-001  0.000000000000000E+000+0.100000000000000E+000 +0.216666666666560E-001  0.000000000000000E+000+0.950000000000138E-001 +0.260000000000000E-001  0.000000000000000E+000+0.900000000000276E-001 +0.260000000000000E-001  0.000000000000000E+000+0.850000000000415E-001 +0.260000000000000E-001  0.000000000000000E+000+0.800000000000553E-001 +0.260000000000000E-001  0.000000000000000E+000+0.750000000000691E-001 +0.260000000000000E-001  0.000000000000000E+000+0.700000000000829E-001 +0.260000000000000E-001  0.000000000000000E+000+0.650000000000968E-001 +0.260000000000000E-001  0.000000000000000E+000+0.600000000001106E-001 +0.260000000000000E-001  0.000000000000000E+000+0.550000000001244E-001 +0.260000000000000E-001  0.000000000000000E+000+0.500000000001369E-001 +0.260000000000000E-001  0.000000000000000E+000+0.450000000001247E-001 +0.260000000000000E-001  0.000000000000000E+000+0.400000000001100E-001 +0.260000000000000E-001  0.000000000000000E+000+0.350000000000951E-001 +0.260000000000000E-001  0.000000000000000E+000+0.300000000000835E-001 +0.260000000000000E-001  0.000000000000000E+000+0.250000000000691E-001 +0.260000000000000E-001  0.000000000000000E+000+0.200000000000548E-001 +0.260000000000000E-001  0.000000000000000E+000+0.150000000000431E-001 +0.260000000000000E-001  0.000000000000000E+000+0.100000000000282E-001 +0.260000000000000E-001  0.000000000000000E+000+0.500000000001274E-002 +0.260000000000000E-001  0.000000000000000E+000 0.000000000000000E+000 +0.216666666666761E-001  0.000000000000000E+000 0.000000000000000E+000 +0.173333333333561E-001  0.000000000000000E+000 0.000000000000000E+000 +0.130000000000335E-001  0.000000000000000E+000 0.000000000000000E+000 +0.866666666668923E-002  0.000000000000000E+000 0.000000000000000E+000 +0.433333333334393E-002  0.000000000000000E+000+0.474770501596061E-001 +0.449457555865549E-002  0.000000000000000E+000+0.624137095822587E-001 +0.218639104185592E-001  0.000000000000000E+000+0.274710820211137E-001 +0.439781066491993E-002  0.000000000000000E+000+0.775162404499768E-001 +0.218822875726493E-001  0.000000000000000E+000+0.175000000000489E-001 +0.216698729810677E-001  0.000000000000000E+000+0.374049377742800E-001 +0.217454153049271E-001  0.000000000000000E+000+0.873299162642599E-001 +0.493503711796043E-002  0.000000000000000E+000+0.962472232502677E-001 +0.151666666666384E-001  0.000000000000000E+000+0.361092965627013E-002 +0.107352657633569E-001  0.000000000000000E+000+0.524222487305538E-001 +0.217494710322139E-001  0.000000000000000E+000+0.724471979965309E-001 +0.480286472974082E-002  0.000000000000000E+000+0.574556233588582E-001 +0.465234046326982E-002  0.000000000000000E+000+0.374775082418216E-001 +0.443588749052796E-002  0.000000000000000E+000+0.174620748440649E-001 +0.432604372433973E-002  0.000000000000000E+000+0.274069445303662E-001 +0.216995189535168E-001  0.000000000000000E+000+0.875000000000345E-001 +0.216698729810898E-001  0.000000000000000E+000+0.768509429014877E-002 +0.215379337211246E-001  0.000000000000000E+000+0.963904321494850E-001 +0.661398939465712E-002  0.000000000000000E+000+0.727642177052906E-002 +0.443011470774208E-002  0.000000000000000E+000+0.124449834836647E-001 +0.431291926454894E-002  0.000000000000000E+000+0.149241258378327E-001 +0.860791945987163E-002  0.000000000000000E+000+0.199074884808963E-001 +0.868183890874860E-002  0.000000000000000E+000+0.173445817427756E-001 +0.129363585197896E-001  0.000000000000000E+000+0.223149927841523E-001 +0.130318645013867E-001  0.000000000000000E+000+0.124626594021863E-001 +0.128806353569139E-001  0.000000000000000E+000+0.148978737522776E-001 +0.172549170089808E-001  0.000000000000000E+000+0.100477085488613E-001 +0.173020481200621E-001  0.000000000000000E+000+0.248943288561033E-001 +0.874693478464290E-002  0.000000000000000E+000+0.273027333778438E-001 +0.131023208673426E-001  0.000000000000000E+000+0.298881968642471E-001 +0.882634524946797E-002  0.000000000000000E+000+0.322939746294813E-001 +0.132008562712349E-001  0.000000000000000E+000+0.348859478408316E-001 +0.889254633445792E-002  0.000000000000000E+000+0.372904969874290E-001 +0.132949678594278E-001  0.000000000000000E+000+0.398845499064174E-001 +0.897728704381017E-002  0.000000000000000E+000+0.422917602893396E-001 +0.133530215891990E-001  0.000000000000000E+000+0.448841050044180E-001 +0.904101635819934E-002  0.000000000000000E+000+0.472915329690292E-001 +0.134187777030845E-001  0.000000000000000E+000+0.448528380708523E-001 +0.175735435605107E-001  0.000000000000000E+000+0.498836917835918E-001 +0.911991320375936E-002  0.000000000000000E+000+0.522874069975051E-001 +0.135507216540452E-001  0.000000000000000E+000+0.548790812949033E-001 +0.921149949688830E-002  0.000000000000000E+000+0.572863231540567E-001 +0.136388959671376E-001  0.000000000000000E+000+0.598790589316415E-001 +0.918407375678816E-002  0.000000000000000E+000+0.623590312841999E-001 +0.136161871876397E-001  0.000000000000000E+000+0.648882846946340E-001 +0.929768835114423E-002  0.000000000000000E+000+0.673708037938968E-001 +0.137654412938815E-001  0.000000000000000E+000+0.698815075929149E-001 +0.944835648181582E-002  0.000000000000000E+000+0.723006618538128E-001 +0.138184730749027E-001  0.000000000000000E+000+0.699048578930071E-001 +0.178446291117357E-001  0.000000000000000E+000+0.748765735527623E-001 +0.937460219893974E-002  0.000000000000000E+000+0.773169545123332E-001 +0.138727132318244E-001  0.000000000000000E+000+0.798463307594286E-001 +0.960013646147148E-002  0.000000000000000E+000+0.823528893119287E-001 +0.139299421283865E-001  0.000000000000000E+000+0.847816044956594E-001 +0.970343309172691E-002  0.000000000000000E+000+0.872193013720580E-001 +0.140356141943716E-001  0.000000000000000E+000+0.894050078821107E-001 +0.926570675087459E-002  0.000000000000000E+000+0.824082332243445E-001 +0.499899823812024E-002  0.000000000000000E+000+0.674500068614159E-001 +0.480706579594959E-002  0.000000000000000E+000+0.102343281449715E-001 +0.864992134013922E-002  0.000000000000000E+000+0.125217794319013E-001 +0.216274619718725E-001  0.000000000000000E+000+0.530727028577484E-002 +0.174243678533301E-001  0.000000000000000E+000+0.927072212021592E-001 +0.216524795078309E-001  0.000000000000000E+000+0.825446721529249E-001 +0.217623324626207E-001  0.000000000000000E+000+0.248287209997012E-001 +0.173700977842713E-001  0.000000000000000E+000+0.774559974953847E-001 +0.467369623047021E-002  0.000000000000000E+000+0.524492410994514E-001 +0.457972145376216E-002  0.000000000000000E+000+0.424538688853401E-001 +0.449146107519883E-002  0.000000000000000E+000+0.624631306950981E-001 +0.456708086287553E-002  0.000000000000000E+000+0.324537891613090E-001 +0.442543162322896E-002  0.000000000000000E+000+0.224558290336793E-001 +0.435877134710853E-002  0.000000000000000E+000+0.323740723540678E-001 +0.216972078724282E-001  0.000000000000000E+000+0.573773859284986E-001 +0.217991888252024E-001  0.000000000000000E+000+0.198976948798363E-001 +0.173400626964691E-001  0.000000000000000E+000+0.962582298363988E-001 +0.110362954798282E-001  0.000000000000000E+000+0.224563524297887E-001 +0.217077368256298E-001  0.000000000000000E+000+0.921069635138181E-001 +0.135809272238655E-001  0.000000000000000E+000+0.923858042830145E-001 +0.440245293971425E-002  0.000000000000000E+000+0.474148725805479E-001 +0.218043592700527E-001  0.000000000000000E+000+0.297698604248976E-001 +0.173792298551515E-001  0.000000000000000E+000+0.734871392924924E-002 +0.128570511094810E-001  0.000000000000000E+000+0.363766117527133E-002 +0.655253480415738E-002  0.000000000000000E+000+0.347814593749260E-001 +0.174396077677385E-001  0.000000000000000E+000+0.964468684680814E-001 +0.193951920109048E-001  0.000000000000000E+000+0.398535820828240E-001 +0.175636784640132E-001  0.000000000000000E+000+0.424210384181232E-001 +0.217811660999173E-001  0.000000000
[...]
      <PointData>
        <DataArray type="Float64" NumberOfComponents="1" Name="T__TempConverged" format="ascii">
           +0.263150000000000E+003 +0.263150000000000E+003 +0.263150000000000E+003 +0.263150000000000E+003 +0.263150000000000E+003 +0.263150000000000E+003 +0.263150000000000E+003 +0.263150000000000E+003 +0.263150000000000E+003 +0.263150000000000E+003 +0.263150000000000E+003 +0.263150000000000E+003 +0.263150000000000E+003 +0.263150000000000E+003 +0.263150000000000E+003 +0.263150000000000E+003 +0.263150000000000E+003 +0.263150000000000E+003 +0.263150000000000E+003 +0.263150000000000E+003 +0.263150000000000E+003 +0.263150000000000E+003 +0.263150000000000E+003 +0.285883670648401E+003 +0.298773064106992E+003 +0.300510233973526E+003 +0.298791594798129E+003 +0.285886809366251E+003 +0.263150000000000E+003 +0.263150000000000E+003 +0.263150000000000E+003 +0.263150000000000E+003 +0.263150000000000E+003 +0.263150000000000E+003 +0.263150000000000E+003 +0.263150000000000E+003 +0.263150000000000E+003 +0.263150000000000E+003 +0.263150000000000E+003 +0.263150000000000E+003 +0.263150000000000E+003 +0.263150000000000E+003 +0.263150000000000E+003 +0.263150000000000E+003 +0.263150000000000E+003 +0.263150000000000E+003 +0.263150000000000E+003 +0.283966930031138E+003 +0.298244021447403E+003 +0.300487511939138E+003 +0.298791624948142E+003 +0.285873021513862E+003 +0.285346841872246E+003 +0.284050616106943E+003 +0.285011254261443E+003 +0.283966394875388E+003 +0.284770216021187E+003 +0.284502489623738E+003 +0.286810980083823E+003 +0.300128406934449E+003 +0.300080950708992E+003 +0.284484882498494E+003 +0.286362683139236E+003 +0.285889143351509E+003 +0.285146518534312E+003 +0.284748122082749E+003 +0.284662663100144E+003 +0.284724302201518E+003 +0.285065143696040E+003 +0.294595180913186E+003 +0.285385576189325E+003 +0.284690201199201E+003 +0.298241770738980E+003 +0.298306405758540E+003 +0.300728409016531E+003 +0.300713889548312E+003 +0.300702529619346E+003 +0.298411183378945E+003 +0.298203581064710E+003 +0.298378636308069E+003 +0.300708288635088E+003 +0.298466963644791E+003 +0.300705751397881E+003 +0.298549169026486E+003 +0.300705491548093E+003 +0.298640499371315E+003 +0.300702601650868E+003 +0.298705570749866E+003 +0.300694146949703E+003 +0.298007413971384E+003 +0.298769778705672E+003 +0.300671475976694E+003 +0.298861830455013E+003 +0.300665853602020E+003 +0.298789645003267E+003 +0.300667896890649E+003 +0.298882598132896E+003 +0.300655432125625E+003 +0.299026483552755E+003 +0.300647805741326E+003 +0.297613374273846E+003 +0.298910987643337E+003 +0.300631203173175E+003 +0.299154786076854E+003 +0.300586346690711E+003 +0.299304530542169E+003 +0.300554133465987E+003 +0.298970451789749E+003 +0.286999870371801E+003 +0.286392755832492E+003 +0.298403593557241E+003 +0.284868347498939E+003 +0.297591451861043E+003 +0.285054604135436E+003 +0.284386553706752E+003 +0.298261293812426E+003 +0.285883366176141E+003 +0.285641607040224E+003 +0.285347581814468E+003 +0.285556410585783E+003 +0.285111111985303E+003 +0.284869594190071E+003 +0.284678768803088E+003 +0.284309397201077E+003 +0.298294566695275E+003 +0.300206312162584E+003 +0.284628744729832E+003 +0.300544251485878E+003 +0.285252854391185E+003 +0.284270170778699E+003 +0.298245482231882E+003 +0.300615342827126E+003 +0.294388768962711E+003 +0.298164591012985E+003 +0.294610922021246E+003 +0.297988057306190E+003 +0.284364507412785E+003 +0.283872787311072E+003 +0.298004917991039E+003 +0.297941436454850E+003 +0.297750472702170E+003 +0.297685205764972E+003 +0.297797797374914E+003 +0.283913111175109E+003 +0.297212484593568E+003 +0.297552931990988E+003 +0.297333962408539E+003 +0.287068281695397E+003 +0.298471413290190E+003 +0.300152176938441E+003 +0.297907386346303E+003 +0.279603426721547E+003 +0.279571765412919E+003 +0.279564158184326E+003 +0.298115041432714E+003
        </DataArray>
        <DataArray type="Float64" NumberOfComponents="1" Name="R__Res" format="ascii">
            0.000000000000000E+000  0.000000000000000E+000  0.000000000000000E+000  0.000000000000000E+000  0.000000000000000E+000  0.000000000000000E+000  0.000000000000000E+000  0.000000000000000E+000  0.000000000000000E+000  0.000000000000000E+000  0.000000000000000E+000  0.000000000000000E+000  0.000000000000000E+000  0.000000000000000E+000  0.000000000000000E+000  0.000000000000000E+000  0.000000000000000E+000  0.000000000000000E+000  0.000000000000000E+000  0.000000000000000E+000  0.000000000000000E+000  0.000000000000000E+000  0.000000000000000E+000 -0.129827624556856E+000 +0.765153718162992E-009 +0.205353678506270E-009 +0.744294625931730E-009 -0.125269746431652E+000  0.000000000000000E+000  0.000000000000000E+000  0.000000000000000E+000  0.000000000000000E+000  0.000000000000000E+000  0.000000000000000E+000  0.000000000000000E+000  0.000000000000000E+000  0.000000000000000E+000  0.000000000000000E+000  0.000000000000000E+000  0.000000000000000E+000  0.000000000000000E+000  0.000000000000000E+000  0.000000000000000E+000  0.000000000000000E+000  0.000000000000000E+000  0.000000000000000E+000  0.000000000000000E+000 -0.181370316492027E+000 +0.109834441541778E-008 +0.216688764154149E-009 +0.755774443028656E-009 -0.126189258581007E+000 -0.667780519558143E+000 -0.710104924188786E+000 -0.690274480468370E+000 -0.713944332928468E+000 -0.703247151332120E+000 -0.725772103499448E+000 -0.570204777519259E+000 +0.676167288826690E-009 +0.671959321518756E-009 -0.723120553070341E+000 -0.602229094463299E+000 -0.636573838663985E+000 -0.681610889834481E+000 -0.706638395107872E+000 -0.707932761573413E+000 -0.701468282955391E+000 -0.591423164259405E+000 +0.685293199964576E-008 -0.594523286516090E+000 -0.711225012014326E+000 -0.111609699260384E-007 +0.117795642129437E-007 +0.555068468965914E-008 +0.837605040882039E-009 +0.539456124215576E-008 +0.197478344787783E-008 +0.136289335372908E-007 -0.534018673725711E-008 +0.179235181141379E-007 +0.141984313195564E-008 -0.199155997249179E-008 +0.195904759081600E-008 +0.142800099522944E-008 +0.658364651684451E-008 +0.146942036316489E-008 -0.113947651314561E-008 +0.227943991459867E-008 +0.282354659653095E-007 +0.106501163443795E-007 -0.227634244787112E-008 +0.218597127066289E-007 +0.158126614024923E-007 +0.785740228437248E-008 -0.357651663840386E-008 +0.186283033443146E-008 +0.353086093696220E-008 +0.478884898402754E-008 -0.202196698273482E-008 -0.297742719368443E-008 +0.175109282629649E-008 +0.773535813181070E-008 +0.223963555479045E-007 +0.104387808397277E-007 +0.465831562213026E-008 -0.988753467989767E-009 +0.167814917517717E-008 -0.557066596644701E+000 -0.601795376057913E+000 -0.605500005690374E-008 -0.684532807989985E+000 +0.118647403013483E-007 -0.608924558682580E+000 -0.717458031924280E+000 +0.326637250580575E-008 -0.619639209585539E+000 -0.648500435204912E+000 -0.670985068224155E+000 -0.646369824943150E+000 -0.684940817124726E+000 -0.699686772931972E+000 -0.712871564756074E+000 -0.734485667506428E+000 -0.309646019935883E-008 -0.179234893593616E-008 -0.708613489809423E+000 +0.428101154525962E-008 -0.602528943727401E+000 -0.735931993655779E+000 +0.196360148141395E-007 +0.271332787349365E-007 -0.440825909109321E-008 +0.475330219629200E-009 -0.236122454921883E-007 -0.624104545821069E-009 -0.732074448535013E+000 -0.674514026926484E+000 +0.317932853377556E-007 -0.763862217922906E-008 -0.113732587792015E-007 -0.259154009363272E-008 -0.204300313333405E-007 -0.668275981190195E+000 -0.151563821493284E-007 +0.189437212583243E-007 -0.111944633562899E-007 -0.480415442897538E+000 -0.300072833248066E-008 +0.979052616756348E-009 +0.101508477179379E-007 -0.666683467834042E+000 -0.651237150854599E+000 -0.652146016341054E+000 -0.324625226699737E-008
        </DataArray>
      </PointData>
    </Piece>
  </UnstructuredGrid>
</VTKFile>
