<?xml version="1.0"?>
<VTKFile type="UnstructuredGrid" version="1.0" byte_order="LittleEndian">
  <UnstructuredGrid>
    <Piece NumberOfPoints="+155" NumberOfCells="+256">
      <Points>
        <DataArray type="Float64" NumberOfComponents="3" Name="Points" format="ascii">
           0.000000000000000E+000  0.000000000000000E+000  0.000000000000000E+000+0.100000000000000E+000  0.000000000000000E+000  0.000000000000000E+000+0.100000000000000E+000 +0.260000000000000E-001  0.000000000000000E+000 0.000000000000000E+000 +0.260000000000000E-001  0.000000000000000E+000+0.499999999999030E-002  0.000000000000000E+000  0.000000000000000E+000+0.999999999998248E-002  0.000000000000000E+000  0.000000000000000E+000+0.149999999999717E-001  0.000000000000000E+000  0.000000000000000E+000+0.199999999999560E-001  0.000000000000000E+000  0.000000000000000E+000+0.249999999999416E-001  0.000000000000000E+000  0.000000000000000E+000+0.299999999999273E-001  0.000000000000000E+000  0.000000000000000E+000+0.349999999999129E-001  0.000000000000000E+000  0.000000000000000E+000+0.399999999998958E-001  0.000000000000000E+000  0.000000000000000E+000+0.449999999998815E-001  0.000000000000000E+000  0.000000000000000E+000+0.499999999998685E-001  0.000000000000000E+000  0.000000000000000E+000+0.549999999998802E-001  0.000000000000000E+000  0.000000000000000E+000+0.599999999998943E-001  0.000000000000000E+000  0.000000000000000E+000+0.649999999999086E-001  0.000000000000000E+000  0.000000000000000E+000+0.699999999999197E-001  0.000000000000000E+000  0.000000000000000E+000+0.749999999999336E-001  0.000000000000000E+000  0.000000000000000E+000+0.799999999999474E-001  0.000000000000000E+000  0.000000000000000E+000+0.849999999999585E-001  0.000000000000000E+000  0.000000000000000E+000+0.899999999999729E-001  0.000000000000000E+000  0.000000000000000E+000+0.949999999999878E-001  0.000000000000000E+000  0.000000000000000E+000+0.100000000000000E+000 +0.433333333332438E-002  0.000000000000000E+000+0.100000000000000E+000 +0.866666666664460E-002  0.000000000000000E+000+0.100000000000000E+000 +0.129999999999662E-001  0.000000000000000E+000+0.100000000000000E+000 +0.173333333333106E-001  0.000000000000000E+000+0.100000000000000E+000 +0.216666666666560E-001  0.000000000000000E+000+0.950000000000138E-001 +0.260000000000000E-001  0.000000000000000E+000+0.900000000000276E-001 +0.260000000000000E-001  0.000000000000000E+000+0.850000000000415E-001 +0.260000000000000E-001  0.000000000000000E+000+0.800000000000553E-001 +0.260000000000000E-001  0.000000000000000E+000+0.750000000000691E-001 +0.260000000000000E-001  0.000000000000000E+000+0.700000000000829E-001 +0.260000000000000E-001  0.000000000000000E+000+0.650000000000968E-001 +0.260000000000000E-001  0.000000000000000E+000+0.600000000001106E-001 +0.260000000000000E-001  0.000000000000000E+000+0.550000000001244E-001 +0.260000000000000E-001  0.000000000000000E+000+0.500000000001369E-001 +0.260000000000000E-001  0.000000000000000E+000+0.450000000001247E-001 +0.260000000000000E-001  0.000000000000000E+000+0.400000000001100E-001 +0.260000000000000E-001  0.000000000000000E+000+0.350000000000951E-001 +0.260000000000000E-001  0.000000000000000E+000+0.300000000000835E-001 +0.260000000000000E-001  0.000000000000000E+000+0.250000000000691E-001 +0.260000000000000E-001  0.000000000000000E+000+0.200000000000548E-001 +0.260000000000000E-001  0.000000000000000E+000+0.150000000000431E-001 +0.260000000000000E-001  0.000000000000000E+000+0.100000000000282E-001 +0.260000000000000E-001  0.000000000000000E+000+0.500000000001274E-002 +0.260000000000000E-001  0.000000000000000E+000 0.000000000000000E+000 +0.216666666666761E-001  0.000000000000000E+000 0.000000000000000E+000 +0.173333333333561E-001  0.000000000000000E+000 0.000000000000000E+000 +0.130000000000335E-001  0.000000000000000E+000 0.000000000000000E+000 +0.866666666668923E-002  0.000000000000000E+000 0.000000000000000E+000 +0.433333333334393E-002  0.000000000000000E+000+0.474770501596061E-001 +0.449457555865549E-002  0.000000000000000E+000+0.624137095822587E-001 +0.218639104185592E-001  0.000000000000000E+000+0.274710820211137E-001 +0.439781066491993E-002  0.000000000000000E+000+0.775162404499768E-001 +0.218822875726493E-001  0.000000000000000E+000+0.175000000000489E-001 +0.216698729810677E-001  0.000000000000000E+000+0.374049377742800E-001 +0.217454153049271E-001  0.000000000000000E+000+0.873299162642599E-001 +0.493503711796043E-002  0.000000000000000E+000+0.962472232502677E-001 +0.151666666666384E-001  0.000000000000000E+000+0.361092965627013E-002 +0.107352657633569E-001  0.000000000000000E+000+0.524222487305538E-001 +0.217494710322139E-001  0.000000000000000E+000+0.724471979965309E-001 +0.480286472974082E-002  0.000000000000000E+000+0.574556233588582E-001 +0.465234046326982E-002  0.000000000000000E+000+0.374775082418216E-001 +0.443588749052796E-002  0.000000000000000E+000+0.174620748440649E-001 +0.432604372433973E-002  0.000000000000000E+000+0.274069445303662E-001 +0.216995189535168E-001  0.000000000000000E+000+0.875000000000345E-001 +0.216698729810898E-001  0.000000000000000E+000+0.768509429014877E-002 +0.215379337211246E-001  0.000000000000000E+000+0.963904321494850E-001 +0.661398939465712E-002  0.000000000000000E+000+0.727642177052906E-002 +0.443011470774208E-002  0.000000000000000E+000+0.124449834836647E-001 +0.431291926454894E-002  0.000000000000000E+000+0.149241258378327E-001 +0.860791945987163E-002  0.000000000000000E+000+0.199074884808963E-001 +0.868183890874860E-002  0.000000000000000E+000+0.173445817427756E-001 +0.129363585197896E-001  0.000000000000000E+000+0.223149927841523E-001 +0.130318645013867E-001  0.000000000000000E+000+0.124626594021863E-001 +0.128806353569139E-001  0.000000000000000E+000+0.148978737522776E-001 +0.172549170089808E-001  0.000000000000000E+000+0.100477085488613E-001 +0.173020481200621E-001  0.000000000000000E+000+0.248943288561033E-001 +0.874693478464290E-002  0.000000000000000E+000+0.273027333778438E-001 +0.131023208673426E-001  0.000000000000000E+000+0.298881968642471E-001 +0.882634524946797E-002  0.000000000000000E+000+0.322939746294813E-001 +0.132008562712349E-001  0.000000000000000E+000+0.348859478408316E-001 +0.889254633445792E-002  0.000000000000000E+000+0.372904969874290E-001 +0.132949678594278E-001  0.000000000000000E+000+0.398845499064174E-001 +0.897728704381017E-002  0.000000000000000E+000+0.422917602893396E-001 +0.133530215891990E-001  0.000000000000000E+000+0.448841050044180E-001 +0.904101635819934E-002  0.000000000000000E+000+0.472915329690292E-001 +0.134187777030845E-001  0.000000000000000E+000+0.448528380708523E-001 +0.175735435605107E-001  0.000000000000000E+000+0.498836917835918E-001 +0.911991320375936E-002  0.000000000000000E+000+0.522874069975051E-001 +0.135507216540452E-001  0.000000000000000E+000+0.548790812949033E-001 +0.921149949688830E-002  0.000000000000000E+000+0.572863231540567E-001 +0.136388959671376E-001  0.000000000000000E+000+0.598790589316415E-001 +0.918407375678816E-002  0.000000000000000E+000+0.623590312841999E-001 +0.136161871876397E-001  0.000000000000000E+000+0.648882846946340E-001 +0.929768835114423E-002  0.000000000000000E+000+0.673708037938968E-001 +0.137654412938815E-001  0.000000000000000E+000+0.698815075929149E-001 +0.944835648181582E-002  0.000000000000000E+000+0.723006618538128E-001 +0.138184730749027E-001  0.000000000000000E+000+0.699048578930071E-001 +0.178446291117357E-001  0.000000000000000E+000+0.748765735527623E-001 +0.937460219893974E-002  0.000000000000000E+000+0.773169545123332E-001 +0.138727132318244E-001  0.000000000000000E+000+0.798463307594286E-001 +0.960013646147148E-002  0.000000000000000E+000+0.823528893119287E-001 +0.139299421283865E-001  0.000000000000000E+000+0.847816044956594E-001 +0.970343309172691E-002  0.000000000000000E+000+0.872193013720580E-001 +0.140356141943716E-001  0.000000000000000E+000+0.894050078821107E-001 +0.926570675087459E-002  0.000000000000000E+000+0.824082332243445E-001 +0.499899823812024E-002  0.000000000000000E+000+0.674500068614159E-001 +0.480706579594959E-002  0.000000000000000E+000+0.102343281449715E-001 +0.864992134013922E-002  0.000000000000000E+000+0.125217794319013E-001 +0.216274619718725E-001  0.000000000000000E+000+0.530727028577484E-002 +0.174243678533301E-001  0.000000000000000E+000+0.927072212021592E-001 +0.216524795078309E-001  0.000000000000000E+000+0.825446721529249E-001 +0.217623324626207E-001  0.000000000000000E+000+0.248287209997012E-001 +0.173700977842713E-001  0.000000000000000E+000+0.774559974953847E-001 +0.467369623047021E-002  0.000000000000000E+000+0.524492410994514E-001 +0.457972145376216E-002  0.000000000000000E+000+0.424538688853401E-001 +0.449146107519883E-002  0.000000000000000E+000+0.624631306950981E-001 +0.456708086287553E-002  0.000000000000000E+000+0.324537891613090E-001 +0.442543162322896E-002  0.000000000000000E+000+0.224558290336793E-001 +0.435877134710853E-002  0.000000000000000E+000+0.323740723540678E-001 +0.216972078724282E-001  0.000000000000000E+000+0.573773859284986E-001 +0.217991888252024E-001  0.000000000000000E+000+0.198976948798363E-001 +0.173400626964691E-001  0.000000000000000E+000+0.962582298363988E-001 +0.110362954798282E-001  0.000000000000000E+000+0.224563524297887E-001 +0.217077368256298E-001  0.000000000000000E+000+0.921069635138181E-001 +0.135809272238655E-001  0.000000000000000E+000+0.923858042830145E-001 +0.440245293971425E-002  0.000000000000000E+000+0.474148725805479E-001 +0.218043592700527E-001  0.000000000000000E+000+0.297698604248976E-001 +0.173792298551515E-001  0.000000000000000E+000+0.734871392924924E-002 +0.128570511094810E-001  0.000000000000000E+000+0.363766117527133E-002 +0.655253480415738E-002  0.000000000000000E+000+0.347814593749260E-001 +0.174396077677385E-001  0.000000000000000E+000+0.964468684680814E-001 +0.193951920109048E-001  0.000000000000000E+000+0.398535820828240E-001 +0.175636784640132E-001  0.000000000000000E+000+0.424210384181232E-001 +0.217811660999173E-001  0.000000000
[...]
      <PointData>
        <DataArray type="Float64" NumberOfComponents="1" Name="T__TempConverged" format="ascii">
           +0.263150000000000E+003 +0.263150000000000E+003 +0.263150000000000E+003 +0.263150000000000E+003 +0.263150000000000E+003 +0.263150000000000E+003 +0.263150000000000E+003 +0.263150000000000E+003 +0.263150000000000E+003 +0.263150000000000E+003 +0.263150000000000E+003 +0.263150000000000E+003 +0.263150000000000E+003 +0.263150000000000E+003 +0.263150000000000E+003 +0.263150000000000E+003 +0.263150000000000E+003 +0.263150000000000E+003 +0.263150000000000E+003 +0.263150000000000E+003 +0.263150000000000E+003 +0.263150000000000E+003 +0.263150000000000E+003 +0.272169673851073E+003 +0.284295769002632E+003 +0.288636767411648E+003 +0.284386999412052E+003 +0.272269048163537E+003 +0.263150000000000E+003 +0.263150000000000E+003 +0.263150000000000E+003 +0.263150000000000E+003 +0.263150000000000E+003 +0.263150000000000E+003 +0.263150000000000E+003 +0.263150000000000E+003 +0.263150000000000E+003 +0.263150000000000E+003 +0.263150000000000E+003 +0.263150000000000E+003 +0.263150000000000E+003 +0.263150000000000E+003 +0.263150000000000E+003 +0.263150000000000E+003 +0.263150000000000E+003 +0.263150000000000E+003 +0.263150000000000E+003 +0.275253128819853E+003 +0.284818468339528E+003 +0.288417711822462E+003 +0.284207708478186E+003 +0.272245004471757E+003 +0.275602840342736E+003 +0.274781523192794E+003 +0.275401993941477E+003 +0.274731783799252E+003 +0.275241773247669E+003 +0.275071611575662E+003 +0.276738492728189E+003 +0.287582218202232E+003 +0.287230562383624E+003 +0.275076931838896E+003 +0.276315018765232E+003 +0.275993953761042E+003 +0.275477933318199E+003 +0.275229159905989E+003 +0.275175650590493E+003 +0.275362667681331E+003 +0.275463339300488E+003 +0.279479739581266E+003 +0.274948565634652E+003 +0.275280700347290E+003 +0.284824797323273E+003 +0.284885886296003E+003 +0.288495744322514E+003 +0.288475788191745E+003 +0.288487431384020E+003 +0.284962468675380E+003 +0.284866224691333E+003 +0.284968380046964E+003 +0.288465988859692E+003 +0.285075844866300E+003 +0.288460073177473E+003 +0.285167852064131E+003 +0.288452708108640E+003 +0.285280286544142E+003 +0.288434531436891E+003 +0.285357404565206E+003 +0.288408395180508E+003 +0.284497262881834E+003 +0.285446858809634E+003 +0.288375548984838E+003 +0.285559139098674E+003 +0.288356067673772E+003 +0.285504667076506E+003 +0.288339560160350E+003 +0.285634068044839E+003 +0.288307959862317E+003 +0.285809787841526E+003 +0.288275304748573E+003 +0.284036118855988E+003 +0.285698288357410E+003 +0.288241585548328E+003 +0.285992761935994E+003 +0.288233580969530E+003 +0.286186998667158E+003 +0.288282051580030E+003 +0.285735500641116E+003 +0.276785183639929E+003 +0.276346067125490E+003 +0.284896908612981E+003 +0.275325088431658E+003 +0.284504432908267E+003 +0.274717509527340E+003 +0.275028499971571E+003 +0.284810802145459E+003 +0.275939651659191E+003 +0.275809714979747E+003 +0.275619210275394E+003 +0.275725202783923E+003 +0.275465373828767E+003 +0.275310508147563E+003 +0.275191886807199E+003 +0.274948467840565E+003 +0.284849428112883E+003 +0.287699306180147E+003 +0.275146876987015E+003 +0.288577818542116E+003 +0.274834721924580E+003 +0.274915919328591E+003 +0.284795079855338E+003 +0.288588992082569E+003 +0.279315193065383E+003 +0.284699262500458E+003 +0.279566495959972E+003 +0.284505237096286E+003 +0.274983812501808E+003 +0.274661457322831E+003 +0.284501306508205E+003 +0.284453996993782E+003 +0.284221810611410E+003 +0.284116869318954E+003 +0.284306850147628E+003 +0.274679242948348E+003 +0.283804512446402E+003 +0.283954303671938E+003 +0.283805162608428E+003 +0.276804699328796E+003 +0.285018599649919E+003 +0.287918898605641E+003 +0.284301690216771E+003 +0.269725870677788E+003 +0.269711134604489E+003 +0.269696167208666E+003 +0.284429410502754E+003
        </DataArray>
        <DataArray type="Float64" NumberOfComponents="1" Name="R__Res" format="ascii">
            0.000000000000000E+000  0.000000000000000E+000  0.000000000000000E+000  0.000000000000000E+000  0.000000000000000E+000  0.000000000000000E+000  0.000000000000000E+000  0.000000000000000E+000  0.000000000000000E+000  0.000000000000000E+000  0.000000000000000E+000  0.000000000000000E+000  0.000000000000000E+000  0.000000000000000E+000  0.000000000000000E+000  0.000000000000000E+000  0.000000000000000E+000  0.000000000000000E+000  0.000000000000000E+000  0.000000000000000E+000  0.000000000000000E+000  0.000000000000000E+000  0.000000000000000E+000 -0.399008575882283E-001 +0.591553491037622E-003 +0.438951197612170E-008 +0.286172744015434E-003 -0.904597419831617E-001  0.000000000000000E+000  0.000000000000000E+000  0.000000000000000E+000  0.000000000000000E+000  0.000000000000000E+000  0.000000000000000E+000  0.000000000000000E+000  0.000000000000000E+000  0.000000000000000E+000  0.000000000000000E+000  0.000000000000000E+000  0.000000000000000E+000  0.000000000000000E+000  0.000000000000000E+000  0.000000000000000E+000  0.000000000000000E+000  0.000000000000000E+000  0.000000000000000E+000  0.000000000000000E+000 -0.272855800435474E-001 +0.407704203730930E-008 +0.352762336008894E-008 +0.342628876689399E-003 -0.930332724148256E-001 -0.145674008842132E+000 -0.206254668657703E+000 -0.148388741754477E+000 -0.208996015704189E+000 -0.149977383913556E+000 -0.181549674519475E+000 -0.140848384301876E+000 +0.715832737530064E-008 +0.716529380273556E-008 -0.193180610599359E+000 -0.137817192247587E+000 -0.142217723975858E+000 -0.147268707268859E+000 -0.149259517185030E+000 -0.150577564870522E+000 -0.181195132524919E+000 -0.138114397923863E+000 -0.317601943121648E-001 -0.121778187711677E+000 -0.170619398409087E+000 +0.938951583151493E-009 +0.991983539755381E-008 +0.113809637825035E-007 +0.926256793487568E-008 +0.120997933339417E-007 +0.724847404320883E-008 +0.118771690260644E-007 +0.323416871061966E-008 +0.873536631917915E-008 +0.830292257170129E-008 +0.673314126675706E-008 +0.860015281212156E-008 +0.158005874495437E-007 +0.488220086580782E-008 +0.950133544064258E-008 +0.869724026131280E-008 +0.126602211492077E-007 +0.185541864095029E-007 +0.108922586505855E-007 +0.108940689802495E-007 +0.122828704984812E-007 +0.221866196525866E-007 +0.849590175988624E-008 +0.778570952153501E-008 +0.890558182753409E-008 +0.125041892395927E-007 +0.120687109195217E-007 +0.911377329160246E-008 +0.871361804932747E-008 +0.718519643783111E-008 +0.149056996745500E-007 +0.774974551198682E-008 +0.292587126748955E-007 +0.236532005093437E-008 +0.793192755921268E-008 +0.842069503015352E-008 -0.130469056537757E+000 -0.137705196409629E+000 +0.189792992433269E-008 -0.148370428775637E+000 +0.397468302715254E-008 -0.122244698239163E+000 -0.183539388280253E+000 +0.105582558251882E-007 -0.139631522562668E+000 -0.143411706148528E+000 -0.146175502260882E+000 -0.142978903447483E+000 -0.147781728602502E+000 -0.149500421096118E+000 -0.159780728548935E+000 -0.197431223367552E+000 +0.113015456992827E-007 -0.761335006149721E-008 -0.150657343672975E+000 +0.165361679904663E-007 -0.108237348506946E+000 -0.195902819610398E+000 -0.265490576190075E-007 +0.112558924958428E-007 -0.276831583211210E-001 -0.472438665966024E-008 -0.282262909673268E-001 -0.134130881956906E-007 -0.194933035349500E+000 -0.213521104060093E+000 -0.157747743756431E-007 -0.447247909818316E-007 -0.104703645753546E-008 +0.148548995326792E-008 -0.184589818985614E-007 -0.210366358229130E+000 -0.241940145695452E-007 +0.280040675093574E-007 +0.250482001806773E-007 -0.115102807748451E+000 +0.309973768874983E-009 -0.324153315300890E-008 -0.918399800653447E-008 +0.647702948739721E-001 +0.795594667130644E-001 +0.799398148241455E-001 +0.267904445849787E-007
        </DataArray>
      </PointData>
    </Piece>
  </UnstructuredGrid>
</VTKFile>
