<?xml version="1.0"?>
<VTKFile type="UnstructuredGrid" version="1.0" byte_order="LittleEndian">
  <UnstructuredGrid>
    <Piece NumberOfPoints="+155" NumberOfCells="+256">
      <Points>
        <DataArray type="Float64" NumberOfComponents="3" Name="Points" format="ascii">
           0.000000000000000E+000  0.000000000000000E+000  0.000000000000000E+000+0.100000000000000E+000  0.000000000000000E+000  0.000000000000000E+000+0.100000000000000E+000 +0.260000000000000E-001  0.000000000000000E+000 0.000000000000000E+000 +0.260000000000000E-001  0.000000000000000E+000+0.499999999999030E-002  0.000000000000000E+000  0.000000000000000E+000+0.999999999998248E-002  0.000000000000000E+000  0.000000000000000E+000+0.149999999999717E-001  0.000000000000000E+000  0.000000000000000E+000+0.199999999999560E-001  0.000000000000000E+000  0.000000000000000E+000+0.249999999999416E-001  0.000000000000000E+000  0.000000000000000E+000+0.299999999999273E-001  0.000000000000000E+000  0.000000000000000E+000+0.349999999999129E-001  0.000000000000000E+000  0.000000000000000E+000+0.399999999998958E-001  0.000000000000000E+000  0.000000000000000E+000+0.449999999998815E-001  0.000000000000000E+000  0.000000000000000E+000+0.499999999998685E-001  0.000000000000000E+000  0.000000000000000E+000+0.549999999998802E-001  0.000000000000000E+000  0.000000000000000E+000+0.599999999998943E-001  0.000000000000000E+000  0.000000000000000E+000+0.649999999999086E-001  0.000000000000000E+000  0.000000000000000E+000+0.699999999999197E-001  0.000000000000000E+000  0.000000000000000E+000+0.749999999999336E-001  0.000000000000000E+000  0.000000000000000E+000+0.799999999999474E-001  0.000000000000000E+000  0.000000000000000E+000+0.849999999999585E-001  0.000000000000000E+000  0.000000000000000E+000+0.899999999999729E-001  0.000000000000000E+000  0.000000000000000E+000+0.949999999999878E-001  0.000000000000000E+000  0.000000000000000E+000+0.100000000000000E+000 +0.433333333332438E-002  0.000000000000000E+000+0.100000000000000E+000 +0.866666666664460E-002  0.000000000000000E+000+0.100000000000000E+000 +0.129999999999662E-001  0.000000000000000E+000+0.100000000000000E+000 +0.173333333333106E-001  0.000000000000000E+000+0.100000000000000E+000 +0.216666666666560E-001  0.000000000000000E+000+0.950000000000138E-001 +0.260000000000000E-001  0.000000000000000E+000+0.900000000000276E-001 +0.260000000000000E-001  0.000000000000000E+000+0.850000000000415E-001 +0.260000000000000E-001  0.000000000000000E+000+0.800000000000553E-001 +0.260000000000000E-001  0.000000000000000E+000+0.750000000000691E-001 +0.260000000000000E-001  0.000000000000000E+000+0.700000000000829E-001 +0.260000000000000E-001  0.000000000000000E+000+0.650000000000968E-001 +0.260000000000000E-001  0.000000000000000E+000+0.600000000001106E-001 +0.260000000000000E-001  0.000000000000000E+000+0.550000000001244E-001 +0.260000000000000E-001  0.000000000000000E+000+0.500000000001369E-001 +0.260000000000000E-001  0.000000000000000E+000+0.450000000001247E-001 +0.260000000000000E-001  0.000000000000000E+000+0.400000000001100E-001 +0.260000000000000E-001  0.000000000000000E+000+0.350000000000951E-001 +0.260000000000000E-001  0.000000000000000E+000+0.300000000000835E-001 +0.260000000000000E-001  0.000000000000000E+000+0.250000000000691E-001 +0.260000000000000E-001  0.000000000000000E+000+0.200000000000548E-001 +0.260000000000000E-001  0.000000000000000E+000+0.150000000000431E-001 +0.260000000000000E-001  0.000000000000000E+000+0.100000000000282E-001 +0.260000000000000E-001  0.000000000000000E+000+0.500000000001274E-002 +0.260000000000000E-001  0.000000000000000E+000 0.000000000000000E+000 +0.216666666666761E-001  0.000000000000000E+000 0.000000000000000E+000 +0.173333333333561E-001  0.000000000000000E+000 0.000000000000000E+000 +0.130000000000335E-001  0.000000000000000E+000 0.000000000000000E+000 +0.866666666668923E-002  0.000000000000000E+000 0.000000000000000E+000 +0.433333333334393E-002  0.000000000000000E+000+0.474770501596061E-001 +0.449457555865549E-002  0.000000000000000E+000+0.624137095822587E-001 +0.218639104185592E-001  0.000000000000000E+000+0.274710820211137E-001 +0.439781066491993E-002  0.000000000000000E+000+0.775162404499768E-001 +0.218822875726493E-001  0.000000000000000E+000+0.175000000000489E-001 +0.216698729810677E-001  0.000000000000000E+000+0.374049377742800E-001 +0.217454153049271E-001  0.000000000000000E+000+0.873299162642599E-001 +0.493503711796043E-002  0.000000000000000E+000+0.962472232502677E-001 +0.151666666666384E-001  0.000000000000000E+000+0.361092965627013E-002 +0.107352657633569E-001  0.000000000000000E+000+0.524222487305538E-001 +0.217494710322139E-001  0.000000000000000E+000+0.724471979965309E-001 +0.480286472974082E-002  0.000000000000000E+000+0.574556233588582E-001 +0.465234046326982E-002  0.000000000000000E+000+0.374775082418216E-001 +0.443588749052796E-002  0.000000000000000E+000+0.174620748440649E-001 +0.432604372433973E-002  0.000000000000000E+000+0.274069445303662E-001 +0.216995189535168E-001  0.000000000000000E+000+0.875000000000345E-001 +0.216698729810898E-001  0.000000000000000E+000+0.768509429014877E-002 +0.215379337211246E-001  0.000000000000000E+000+0.963904321494850E-001 +0.661398939465712E-002  0.000000000000000E+000+0.727642177052906E-002 +0.443011470774208E-002  0.000000000000000E+000+0.124449834836647E-001 +0.431291926454894E-002  0.000000000000000E+000+0.149241258378327E-001 +0.860791945987163E-002  0.000000000000000E+000+0.199074884808963E-001 +0.868183890874860E-002  0.000000000000000E+000+0.173445817427756E-001 +0.129363585197896E-001  0.000000000000000E+000+0.223149927841523E-001 +0.130318645013867E-001  0.000000000000000E+000+0.124626594021863E-001 +0.128806353569139E-001  0.000000000000000E+000+0.148978737522776E-001 +0.172549170089808E-001  0.000000000000000E+000+0.100477085488613E-001 +0.173020481200621E-001  0.000000000000000E+000+0.248943288561033E-001 +0.874693478464290E-002  0.000000000000000E+000+0.273027333778438E-001 +0.131023208673426E-001  0.000000000000000E+000+0.298881968642471E-001 +0.882634524946797E-002  0.000000000000000E+000+0.322939746294813E-001 +0.132008562712349E-001  0.000000000000000E+000+0.348859478408316E-001 +0.889254633445792E-002  0.000000000000000E+000+0.372904969874290E-001 +0.132949678594278E-001  0.000000000000000E+000+0.398845499064174E-001 +0.897728704381017E-002  0.000000000000000E+000+0.422917602893396E-001 +0.133530215891990E-001  0.000000000000000E+000+0.448841050044180E-001 +0.904101635819934E-002  0.000000000000000E+000+0.472915329690292E-001 +0.134187777030845E-001  0.000000000000000E+000+0.448528380708523E-001 +0.175735435605107E-001  0.000000000000000E+000+0.498836917835918E-001 +0.911991320375936E-002  0.000000000000000E+000+0.522874069975051E-001 +0.135507216540452E-001  0.000000000000000E+000+0.548790812949033E-001 +0.921149949688830E-002  0.000000000000000E+000+0.572863231540567E-001 +0.136388959671376E-001  0.000000000000000E+000+0.598790589316415E-001 +0.918407375678816E-002  0.000000000000000E+000+0.623590312841999E-001 +0.136161871876397E-001  0.000000000000000E+000+0.648882846946340E-001 +0.929768835114423E-002  0.000000000000000E+000+0.673708037938968E-001 +0.137654412938815E-001  0.000000000000000E+000+0.698815075929149E-001 +0.944835648181582E-002  0.000000000000000E+000+0.723006618538128E-001 +0.138184730749027E-001  0.000000000000000E+000+0.699048578930071E-001 +0.178446291117357E-001  0.000000000000000E+000+0.748765735527623E-001 +0.937460219893974E-002  0.000000000000000E+000+0.773169545123332E-001 +0.138727132318244E-001  0.000000000000000E+000+0.798463307594286E-001 +0.960013646147148E-002  0.000000000000000E+000+0.823528893119287E-001 +0.139299421283865E-001  0.000000000000000E+000+0.847816044956594E-001 +0.970343309172691E-002  0.000000000000000E+000+0.872193013720580E-001 +0.140356141943716E-001  0.000000000000000E+000+0.894050078821107E-001 +0.926570675087459E-002  0.000000000000000E+000+0.824082332243445E-001 +0.499899823812024E-002  0.000000000000000E+000+0.674500068614159E-001 +0.480706579594959E-002  0.000000000000000E+000+0.102343281449715E-001 +0.864992134013922E-002  0.000000000000000E+000+0.125217794319013E-001 +0.216274619718725E-001  0.000000000000000E+000+0.530727028577484E-002 +0.174243678533301E-001  0.000000000000000E+000+0.927072212021592E-001 +0.216524795078309E-001  0.000000000000000E+000+0.825446721529249E-001 +0.217623324626207E-001  0.000000000000000E+000+0.248287209997012E-001 +0.173700977842713E-001  0.000000000000000E+000+0.774559974953847E-001 +0.467369623047021E-002  0.000000000000000E+000+0.524492410994514E-001 +0.457972145376216E-002  0.000000000000000E+000+0.424538688853401E-001 +0.449146107519883E-002  0.000000000000000E+000+0.624631306950981E-001 +0.456708086287553E-002  0.000000000000000E+000+0.324537891613090E-001 +0.442543162322896E-002  0.000000000000000E+000+0.224558290336793E-001 +0.435877134710853E-002  0.000000000000000E+000+0.323740723540678E-001 +0.216972078724282E-001  0.000000000000000E+000+0.573773859284986E-001 +0.217991888252024E-001  0.000000000000000E+000+0.198976948798363E-001 +0.173400626964691E-001  0.000000000000000E+000+0.962582298363988E-001 +0.110362954798282E-001  0.000000000000000E+000+0.224563524297887E-001 +0.217077368256298E-001  0.000000000000000E+000+0.921069635138181E-001 +0.135809272238655E-001  0.000000000000000E+000+0.923858042830145E-001 +0.440245293971425E-002  0.000000000000000E+000+0.474148725805479E-001 +0.218043592700527E-001  0.000000000000000E+000+0.297698604248976E-001 +0.173792298551515E-001  0.000000000000000E+000+0.734871392924924E-002 +0.128570511094810E-001  0.000000000000000E+000+0.363766117527133E-002 +0.655253480415738E-002  0.000000000000000E+000+0.347814593749260E-001 +0.174396077677385E-001  0.000000000000000E+000+0.964468684680814E-001 +0.193951920109048E-001  0.000000000000000E+000+0.398535820828240E-001 +0.175636784640132E-001  0.000000000000000E+000+0.424210384181232E-001 +0.217811660999173E-001  0.000000000
[...]
      <PointData>
        <DataArray type="Float64" NumberOfComponents="1" Name="T__TempConverged" format="ascii">
           +0.263150000000000E+003 +0.263150000000000E+003 +0.263150000000000E+003 +0.263150000000000E+003 +0.263150000000000E+003 +0.263150000000000E+003 +0.263150000000000E+003 +0.263150000000000E+003 +0.263150000000000E+003 +0.263150000000000E+003 +0.263150000000000E+003 +0.263150000000000E+003 +0.263150000000000E+003 +0.263150000000000E+003 +0.263150000000000E+003 +0.263150000000000E+003 +0.263150000000000E+003 +0.263150000000000E+003 +0.263150000000000E+003 +0.263150000000000E+003 +0.263150000000000E+003 +0.263150000000000E+003 +0.263150000000000E+003 +0.270961852679216E+003 +0.281814043033751E+003 +0.285816495629821E+003 +0.281896495161528E+003 +0.271386752432901E+003 +0.263150000000000E+003 +0.263150000000000E+003 +0.263150000000000E+003 +0.263150000000000E+003 +0.263150000000000E+003 +0.263150000000000E+003 +0.263150000000000E+003 +0.263150000000000E+003 +0.263150000000000E+003 +0.263150000000000E+003 +0.263150000000000E+003 +0.263150000000000E+003 +0.263150000000000E+003 +0.263150000000000E+003 +0.263150000000000E+003 +0.263150000000000E+003 +0.263150000000000E+003 +0.263150000000000E+003 +0.263150000000000E+003 +0.274599350278394E+003 +0.282887963350986E+003 +0.285842694671287E+003 +0.281766696104186E+003 +0.271370860532566E+003 +0.274760020716051E+003 +0.273924174926016E+003 +0.274556888428434E+003 +0.273875714703277E+003 +0.274392660845901E+003 +0.274220044376831E+003 +0.275821394971997E+003 +0.284854982863095E+003 +0.284607103524468E+003 +0.274217973590484E+003 +0.275442436428937E+003 +0.275136956229285E+003 +0.274635250317158E+003 +0.274388639237986E+003 +0.274324510917193E+003 +0.274484907238394E+003 +0.274606981557816E+003 +0.277311792167112E+003 +0.274062590658550E+003 +0.274412417488073E+003 +0.282830354446794E+003 +0.282901026749338E+003 +0.286090990918107E+003 +0.286070823070101E+003 +0.286068052100446E+003 +0.282971589085524E+003 +0.282890829456428E+003 +0.282974264313425E+003 +0.286061045248148E+003 +0.283071191430602E+003 +0.286055922880478E+003 +0.283153578794452E+003 +0.286048579880273E+003 +0.283254287818391E+003 +0.286031320929520E+003 +0.283323691407611E+003 +0.286007819725448E+003 +0.282539539924043E+003 +0.283405017065233E+003 +0.285979136183534E+003 +0.283508046658266E+003 +0.285960531844247E+003 +0.283459871008128E+003 +0.285943740064132E+003 +0.283578441372017E+003 +0.285914319635750E+003 +0.283739281218713E+003 +0.285884829055468E+003 +0.282110457805610E+003 +0.283639365153295E+003 +0.285860669659654E+003 +0.283911287819252E+003 +0.285866811732336E+003 +0.284082377776714E+003 +0.285883894342842E+003 +0.283581906996860E+003 +0.275894390464284E+003 +0.275471260134081E+003 +0.282795982319852E+003 +0.274478699007248E+003 +0.282583743113908E+003 +0.273843949475686E+003 +0.274181359623346E+003 +0.282827240881949E+003 +0.275085095937883E+003 +0.274960013715878E+003 +0.274772388582335E+003 +0.274881841459548E+003 +0.274620261834203E+003 +0.274463355375746E+003 +0.274340168765333E+003 +0.274092121707197E+003 +0.282864586711273E+003 +0.284969330162180E+003 +0.274297092352823E+003 +0.285986875246848E+003 +0.273972856212604E+003 +0.274063580878263E+003 +0.282813622925629E+003 +0.286074005502349E+003 +0.277216081863092E+003 +0.282727083886899E+003 +0.277430083599997E+003 +0.282550515114884E+003 +0.274128143895905E+003 +0.273803326059137E+003 +0.282543670521113E+003 +0.282501184747647E+003 +0.282287836024129E+003 +0.282186401983568E+003 +0.282281397421746E+003 +0.273820146130106E+003 +0.281928838288437E+003 +0.282040768161290E+003 +0.281924547508090E+003 +0.275875043509011E+003 +0.282686443922496E+003 +0.285488988820946E+003 +0.282025200842818E+003 +0.269303608676561E+003 +0.269304935696428E+003 +0.269292028542730E+003 +0.282140461635527E+003
        </DataArray>
        <DataArray type="Float64" NumberOfComponents="1" Name="R__Res" format="ascii">
            0.000000000000000E+000  0.000000000000000E+000  0.000000000000000E+000  0.000000000000000E+000  0.000000000000000E+000  0.000000000000000E+000  0.000000000000000E+000  0.000000000000000E+000  0.000000000000000E+000  0.000000000000000E+000  0.000000000000000E+000  0.000000000000000E+000  0.000000000000000E+000  0.000000000000000E+000  0.000000000000000E+000  0.000000000000000E+000  0.000000000000000E+000  0.000000000000000E+000  0.000000000000000E+000  0.000000000000000E+000  0.000000000000000E+000  0.000000000000000E+000  0.000000000000000E+000 +0.330726525477173E-001 +0.829652644709195E-002 -0.255632737200528E-010 +0.275167953879152E-002 -0.658355769692568E-001  0.000000000000000E+000  0.000000000000000E+000  0.000000000000000E+000  0.000000000000000E+000  0.000000000000000E+000  0.000000000000000E+000  0.000000000000000E+000  0.000000000000000E+000  0.000000000000000E+000  0.000000000000000E+000  0.000000000000000E+000  0.000000000000000E+000  0.000000000000000E+000  0.000000000000000E+000  0.000000000000000E+000  0.000000000000000E+000  0.000000000000000E+000  0.000000000000000E+000  0.000000000000000E+000 -0.389960608553177E-001 -0.228774776900309E-010 -0.198038252463562E-010 +0.295321206213445E-002 -0.638035628399766E-001 -0.169663320579135E+000 -0.206336632881401E+000 -0.180911897465311E+000 -0.208663908412876E+000 -0.186538589968365E+000 -0.194978411614416E+000 -0.141876471917863E+000 -0.412692102713663E-010 -0.391258137000250E-010 -0.196869373552110E+000 -0.124798463584399E+000 -0.160135663258817E+000 -0.176006254829606E+000 -0.186376126915043E+000 -0.189069043214222E+000 -0.204407747518396E+000 -0.152635796014515E+000 +0.195081738950531E-002 -0.119638830780388E+000 -0.202073620132719E+000 -0.587359050285841E-010 -0.150697232470520E-010 -0.458444393558466E-010 -0.542948463966297E-010 -0.470936067920036E-010 -0.452768933456582E-010 +0.331974447931316E-010 -0.478155293137661E-010 -0.352651241541935E-011 -0.463402649586442E-010 -0.573537883852282E-010 -0.474921213466928E-010 -0.524391086109688E-010 -0.478188599828400E-010 -0.451900183939813E-010 -0.569317926135682E-010 -0.587002113583424E-010 -0.663613608509195E-010 -0.529776222890632E-010 -0.519038700907970E-010 -0.399529298533707E-010 -0.531573673967500E-010 -0.471908068178095E-010 -0.556514279104192E-010 -0.481464867974069E-010 -0.549535972282911E-010 -0.582506265445204E-010 -0.600385297033768E-010 -0.576554359810189E-010 -0.409468015050152E-010 -0.654462040117210E-010 -0.347082362850415E-010 -0.731718019508776E-010 -0.322951665410187E-010 -0.509966513462246E-010 -0.476294559348389E-010 -0.120211653728836E+000 -0.133017898372309E+000 -0.378131415068594E-010 -0.181092049941993E+000 -0.272011302371311E-010 -0.117647469765737E+000 -0.195235689781949E+000 -0.295963253904574E-011 -0.125082089190268E+000 -0.163143564288779E+000 -0.173017060946695E+000 -0.152498883383251E+000 -0.178516885292385E+000 -0.184294308049964E+000 -0.191000895395595E+000 -0.199969359185869E+000 +0.163713487211226E-010 -0.469145833292828E-010 -0.188594975371199E+000 +0.659875487585282E-010 -0.960833083374122E-001 -0.198514564549591E+000 +0.667514932217728E-010 -0.842414471513564E-010 +0.239353902831119E-002 +0.761186669251401E-010 +0.204995990753387E-002 -0.603741501237209E-010 -0.197933824323396E+000 -0.211663173214142E+000 +0.142108547152020E-013 +0.533475486008683E-010 +0.808388911366364E-010 +0.122525434242959E-009 -0.418243217836789E-011 -0.208547369328903E+000 -0.307847081160162E-010 -0.437596625602055E-010 +0.136748390389130E-010 -0.114649132359063E+000 +0.283763013086968E-010 -0.298699953660275E-010 +0.124553700686647E-010 +0.636035281903657E-001 +0.827437670337385E-001 +0.853411997287727E-001 -0.311189962687308E-010
        </DataArray>
      </PointData>
    </Piece>
  </UnstructuredGrid>
</VTKFile>
