<?xml version="1.0"?>
<VTKFile type="UnstructuredGrid" version="1.0" byte_order="LittleEndian">
  <UnstructuredGrid>
    <Piece NumberOfPoints="+155" NumberOfCells="+256">
      <Points>
        <DataArray type="Float64" NumberOfComponents="3" Name="Points" format="ascii">
           0.000000000000000E+000  0.000000000000000E+000  0.000000000000000E+000+0.100000000000000E+000  0.000000000000000E+000  0.000000000000000E+000+0.100000000000000E+000 +0.260000000000000E-001  0.000000000000000E+000 0.000000000000000E+000 +0.260000000000000E-001  0.000000000000000E+000+0.499999999999030E-002  0.000000000000000E+000  0.000000000000000E+000+0.999999999998248E-002  0.000000000000000E+000  0.000000000000000E+000+0.149999999999717E-001  0.000000000000000E+000  0.000000000000000E+000+0.199999999999560E-001  0.000000000000000E+000  0.000000000000000E+000+0.249999999999416E-001  0.000000000000000E+000  0.000000000000000E+000+0.299999999999273E-001  0.000000000000000E+000  0.000000000000000E+000+0.349999999999129E-001  0.000000000000000E+000  0.000000000000000E+000+0.399999999998958E-001  0.000000000000000E+000  0.000000000000000E+000+0.449999999998815E-001  0.000000000000000E+000  0.000000000000000E+000+0.499999999998685E-001  0.000000000000000E+000  0.000000000000000E+000+0.549999999998802E-001  0.000000000000000E+000  0.000000000000000E+000+0.599999999998943E-001  0.000000000000000E+000  0.000000000000000E+000+0.649999999999086E-001  0.000000000000000E+000  0.000000000000000E+000+0.699999999999197E-001  0.000000000000000E+000  0.000000000000000E+000+0.749999999999336E-001  0.000000000000000E+000  0.000000000000000E+000+0.799999999999474E-001  0.000000000000000E+000  0.000000000000000E+000+0.849999999999585E-001  0.000000000000000E+000  0.000000000000000E+000+0.899999999999729E-001  0.000000000000000E+000  0.000000000000000E+000+0.949999999999878E-001  0.000000000000000E+000  0.000000000000000E+000+0.100000000000000E+000 +0.433333333332438E-002  0.000000000000000E+000+0.100000000000000E+000 +0.866666666664460E-002  0.000000000000000E+000+0.100000000000000E+000 +0.129999999999662E-001  0.000000000000000E+000+0.100000000000000E+000 +0.173333333333106E-001  0.000000000000000E+000+0.100000000000000E+000 +0.216666666666560E-001  0.000000000000000E+000+0.950000000000138E-001 +0.260000000000000E-001  0.000000000000000E+000+0.900000000000276E-001 +0.260000000000000E-001  0.000000000000000E+000+0.850000000000415E-001 +0.260000000000000E-001  0.000000000000000E+000+0.800000000000553E-001 +0.260000000000000E-001  0.000000000000000E+000+0.750000000000691E-001 +0.260000000000000E-001  0.000000000000000E+000+0.700000000000829E-001 +0.260000000000000E-001  0.000000000000000E+000+0.650000000000968E-001 +0.260000000000000E-001  0.000000000000000E+000+0.600000000001106E-001 +0.260000000000000E-001  0.000000000000000E+000+0.550000000001244E-001 +0.260000000000000E-001  0.000000000000000E+000+0.500000000001369E-001 +0.260000000000000E-001  0.000000000000000E+000+0.450000000001247E-001 +0.260000000000000E-001  0.000000000000000E+000+0.400000000001100E-001 +0.260000000000000E-001  0.000000000000000E+000+0.350000000000951E-001 +0.260000000000000E-001  0.000000000000000E+000+0.300000000000835E-001 +0.260000000000000E-001  0.000000000000000E+000+0.250000000000691E-001 +0.260000000000000E-001  0.000000000000000E+000+0.200000000000548E-001 +0.260000000000000E-001  0.000000000000000E+000+0.150000000000431E-001 +0.260000000000000E-001  0.000000000000000E+000+0.100000000000282E-001 +0.260000000000000E-001  0.000000000000000E+000+0.500000000001274E-002 +0.260000000000000E-001  0.000000000000000E+000 0.000000000000000E+000 +0.216666666666761E-001  0.000000000000000E+000 0.000000000000000E+000 +0.173333333333561E-001  0.000000000000000E+000 0.000000000000000E+000 +0.130000000000335E-001  0.000000000000000E+000 0.000000000000000E+000 +0.866666666668923E-002  0.000000000000000E+000 0.000000000000000E+000 +0.433333333334393E-002  0.000000000000000E+000+0.474770501596061E-001 +0.449457555865549E-002  0.000000000000000E+000+0.624137095822587E-001 +0.218639104185592E-001  0.000000000000000E+000+0.274710820211137E-001 +0.439781066491993E-002  0.000000000000000E+000+0.775162404499768E-001 +0.218822875726493E-001  0.000000000000000E+000+0.175000000000489E-001 +0.216698729810677E-001  0.000000000000000E+000+0.374049377742800E-001 +0.217454153049271E-001  0.000000000000000E+000+0.873299162642599E-001 +0.493503711796043E-002  0.000000000000000E+000+0.962472232502677E-001 +0.151666666666384E-001  0.000000000000000E+000+0.361092965627013E-002 +0.107352657633569E-001  0.000000000000000E+000+0.524222487305538E-001 +0.217494710322139E-001  0.000000000000000E+000+0.724471979965309E-001 +0.480286472974082E-002  0.000000000000000E+000+0.574556233588582E-001 +0.465234046326982E-002  0.000000000000000E+000+0.374775082418216E-001 +0.443588749052796E-002  0.000000000000000E+000+0.174620748440649E-001 +0.432604372433973E-002  0.000000000000000E+000+0.274069445303662E-001 +0.216995189535168E-001  0.000000000000000E+000+0.875000000000345E-001 +0.216698729810898E-001  0.000000000000000E+000+0.768509429014877E-002 +0.215379337211246E-001  0.000000000000000E+000+0.963904321494850E-001 +0.661398939465712E-002  0.000000000000000E+000+0.727642177052906E-002 +0.443011470774208E-002  0.000000000000000E+000+0.124449834836647E-001 +0.431291926454894E-002  0.000000000000000E+000+0.149241258378327E-001 +0.860791945987163E-002  0.000000000000000E+000+0.199074884808963E-001 +0.868183890874860E-002  0.000000000000000E+000+0.173445817427756E-001 +0.129363585197896E-001  0.000000000000000E+000+0.223149927841523E-001 +0.130318645013867E-001  0.000000000000000E+000+0.124626594021863E-001 +0.128806353569139E-001  0.000000000000000E+000+0.148978737522776E-001 +0.172549170089808E-001  0.000000000000000E+000+0.100477085488613E-001 +0.173020481200621E-001  0.000000000000000E+000+0.248943288561033E-001 +0.874693478464290E-002  0.000000000000000E+000+0.273027333778438E-001 +0.131023208673426E-001  0.000000000000000E+000+0.298881968642471E-001 +0.882634524946797E-002  0.000000000000000E+000+0.322939746294813E-001 +0.132008562712349E-001  0.000000000000000E+000+0.348859478408316E-001 +0.889254633445792E-002  0.000000000000000E+000+0.372904969874290E-001 +0.132949678594278E-001  0.000000000000000E+000+0.398845499064174E-001 +0.897728704381017E-002  0.000000000000000E+000+0.422917602893396E-001 +0.133530215891990E-001  0.000000000000000E+000+0.448841050044180E-001 +0.904101635819934E-002  0.000000000000000E+000+0.472915329690292E-001 +0.134187777030845E-001  0.000000000000000E+000+0.448528380708523E-001 +0.175735435605107E-001  0.000000000000000E+000+0.498836917835918E-001 +0.911991320375936E-002  0.000000000000000E+000+0.522874069975051E-001 +0.135507216540452E-001  0.000000000000000E+000+0.548790812949033E-001 +0.921149949688830E-002  0.000000000000000E+000+0.572863231540567E-001 +0.136388959671376E-001  0.000000000000000E+000+0.598790589316415E-001 +0.918407375678816E-002  0.000000000000000E+000+0.623590312841999E-001 +0.136161871876397E-001  0.000000000000000E+000+0.648882846946340E-001 +0.929768835114423E-002  0.000000000000000E+000+0.673708037938968E-001 +0.137654412938815E-001  0.000000000000000E+000+0.698815075929149E-001 +0.944835648181582E-002  0.000000000000000E+000+0.723006618538128E-001 +0.138184730749027E-001  0.000000000000000E+000+0.699048578930071E-001 +0.178446291117357E-001  0.000000000000000E+000+0.748765735527623E-001 +0.937460219893974E-002  0.000000000000000E+000+0.773169545123332E-001 +0.138727132318244E-001  0.000000000000000E+000+0.798463307594286E-001 +0.960013646147148E-002  0.000000000000000E+000+0.823528893119287E-001 +0.139299421283865E-001  0.000000000000000E+000+0.847816044956594E-001 +0.970343309172691E-002  0.000000000000000E+000+0.872193013720580E-001 +0.140356141943716E-001  0.000000000000000E+000+0.894050078821107E-001 +0.926570675087459E-002  0.000000000000000E+000+0.824082332243445E-001 +0.499899823812024E-002  0.000000000000000E+000+0.674500068614159E-001 +0.480706579594959E-002  0.000000000000000E+000+0.102343281449715E-001 +0.864992134013922E-002  0.000000000000000E+000+0.125217794319013E-001 +0.216274619718725E-001  0.000000000000000E+000+0.530727028577484E-002 +0.174243678533301E-001  0.000000000000000E+000+0.927072212021592E-001 +0.216524795078309E-001  0.000000000000000E+000+0.825446721529249E-001 +0.217623324626207E-001  0.000000000000000E+000+0.248287209997012E-001 +0.173700977842713E-001  0.000000000000000E+000+0.774559974953847E-001 +0.467369623047021E-002  0.000000000000000E+000+0.524492410994514E-001 +0.457972145376216E-002  0.000000000000000E+000+0.424538688853401E-001 +0.449146107519883E-002  0.000000000000000E+000+0.624631306950981E-001 +0.456708086287553E-002  0.000000000000000E+000+0.324537891613090E-001 +0.442543162322896E-002  0.000000000000000E+000+0.224558290336793E-001 +0.435877134710853E-002  0.000000000000000E+000+0.323740723540678E-001 +0.216972078724282E-001  0.000000000000000E+000+0.573773859284986E-001 +0.217991888252024E-001  0.000000000000000E+000+0.198976948798363E-001 +0.173400626964691E-001  0.000000000000000E+000+0.962582298363988E-001 +0.110362954798282E-001  0.000000000000000E+000+0.224563524297887E-001 +0.217077368256298E-001  0.000000000000000E+000+0.921069635138181E-001 +0.135809272238655E-001  0.000000000000000E+000+0.923858042830145E-001 +0.440245293971425E-002  0.000000000000000E+000+0.474148725805479E-001 +0.218043592700527E-001  0.000000000000000E+000+0.297698604248976E-001 +0.173792298551515E-001  0.000000000000000E+000+0.734871392924924E-002 +0.128570511094810E-001  0.000000000000000E+000+0.363766117527133E-002 +0.655253480415738E-002  0.000000000000000E+000+0.347814593749260E-001 +0.174396077677385E-001  0.000000000000000E+000+0.964468684680814E-001 +0.193951920109048E-001  0.000000000000000E+000+0.398535820828240E-001 +0.175636784640132E-001  0.000000000000000E+000+0.424210384181232E-001 +0.217811660999173E-001  0.000000000
[...]
      <PointData>
        <DataArray type="Float64" NumberOfComponents="1" Name="T__TempConverged" format="ascii">
           +0.263150000000000E+003 +0.263150000000000E+003 +0.263150000000000E+003 +0.263150000000000E+003 +0.263150000000000E+003 +0.263150000000000E+003 +0.263150000000000E+003 +0.263150000000000E+003 +0.263150000000000E+003 +0.263150000000000E+003 +0.263150000000000E+003 +0.263150000000000E+003 +0.263150000000000E+003 +0.263150000000000E+003 +0.263150000000000E+003 +0.263150000000000E+003 +0.263150000000000E+003 +0.263150000000000E+003 +0.263150000000000E+003 +0.263150000000000E+003 +0.263150000000000E+003 +0.263150000000000E+003 +0.263150000000000E+003 +0.278746161406999E+003 +0.290614583751482E+003 +0.295000387265741E+003 +0.290696199879989E+003 +0.278761986637647E+003 +0.263150000000000E+003 +0.263150000000000E+003 +0.263150000000000E+003 +0.263150000000000E+003 +0.263150000000000E+003 +0.263150000000000E+003 +0.263150000000000E+003 +0.263150000000000E+003 +0.263150000000000E+003 +0.263150000000000E+003 +0.263150000000000E+003 +0.263150000000000E+003 +0.263150000000000E+003 +0.263150000000000E+003 +0.263150000000000E+003 +0.263150000000000E+003 +0.263150000000000E+003 +0.263150000000000E+003 +0.263150000000000E+003 +0.277327342649631E+003 +0.290035731191949E+003 +0.294698853317232E+003 +0.290563121908256E+003 +0.278740445915956E+003 +0.278191652519378E+003 +0.277286374105851E+003 +0.277967312205409E+003 +0.277228395855644E+003 +0.277793720062530E+003 +0.277602235156618E+003 +0.279346077723003E+003 +0.293802422249518E+003 +0.293476263992858E+003 +0.277608025141740E+003 +0.278960467374745E+003 +0.278605452230845E+003 +0.278053614411080E+003 +0.277782763139254E+003 +0.277721104712892E+003 +0.277813382381406E+003 +0.278082913414871E+003 +0.285518903470160E+003 +0.278387101250557E+003 +0.277739638902830E+003 +0.290177333057354E+003 +0.290275557466068E+003 +0.294764730207063E+003 +0.294750531943779E+003 +0.294730210369575E+003 +0.290366593905581E+003 +0.290211497987815E+003 +0.290376421917471E+003 +0.294738096338685E+003 +0.290506599206982E+003 +0.294731459203174E+003 +0.290620917634457E+003 +0.294725523910393E+003 +0.290759073608425E+003 +0.294707676193357E+003 +0.290854742892052E+003 +0.294679053024638E+003 +0.289823255825460E+003 +0.290964774708400E+003 +0.294640427434731E+003 +0.291098863184625E+003 +0.294621682967505E+003 +0.291032308479995E+003 +0.294609345687957E+003 +0.291190324097587E+003 +0.294578636173695E+003 +0.291402944445149E+003 +0.294543900065636E+003 +0.289284560091539E+003 +0.291268916234028E+003 +0.294499768888896E+003 +0.291626454468509E+003 +0.294456310913345E+003 +0.291820383056274E+003 +0.294457666112477E+003 +0.291312150227819E+003 +0.279475606966126E+003 +0.278990761919685E+003 +0.290388789173440E+003 +0.277883252381416E+003 +0.289671747690130E+003 +0.278150551660534E+003 +0.277563535707541E+003 +0.290195029932955E+003 +0.278573803334408E+003 +0.278413239460871E+003 +0.278202546526864E+003 +0.278334832305826E+003 +0.278036263920236E+003 +0.277866622898307E+003 +0.277734529983257E+003 +0.277470210429010E+003 +0.290240024222790E+003 +0.293939474915014E+003 +0.277691640889841E+003 +0.294794125004835E+003 +0.278215056364035E+003 +0.277433929176599E+003 +0.290172965442338E+003 +0.294848210869481E+003 +0.285334690133345E+003 +0.290057190275921E+003 +0.285582487634813E+003 +0.289823261766030E+003 +0.277507429732418E+003 +0.277157264169517E+003 +0.289826490444671E+003 +0.289766271664697E+003 +0.289490993121776E+003 +0.289376547191368E+003 +0.289626706599648E+003 +0.277182869764868E+003 +0.288894288407573E+003 +0.289182321696763E+003 +0.288969167940969E+003 +0.279535759782085E+003 +0.290794350016739E+003 +0.293999828047255E+003 +0.289972349183968E+003 +0.273547028384059E+003 +0.273502878739611E+003 +0.273498846927166E+003 +0.290184613792522E+003
        </DataArray>
        <DataArray type="Float64" NumberOfComponents="1" Name="R__Res" format="ascii">
            0.000000000000000E+000  0.000000000000000E+000  0.000000000000000E+000  0.000000000000000E+000  0.000000000000000E+000  0.000000000000000E+000  0.000000000000000E+000  0.000000000000000E+000  0.000000000000000E+000  0.000000000000000E+000  0.000000000000000E+000  0.000000000000000E+000  0.000000000000000E+000  0.000000000000000E+000  0.000000000000000E+000  0.000000000000000E+000  0.000000000000000E+000  0.000000000000000E+000  0.000000000000000E+000  0.000000000000000E+000  0.000000000000000E+000  0.000000000000000E+000  0.000000000000000E+000 -0.866647626161622E-001 +0.554694790100285E-009 +0.606589556362280E-009 +0.543299460975533E-009 -0.859489859584127E-001  0.000000000000000E+000  0.000000000000000E+000  0.000000000000000E+000  0.000000000000000E+000  0.000000000000000E+000  0.000000000000000E+000  0.000000000000000E+000  0.000000000000000E+000  0.000000000000000E+000  0.000000000000000E+000  0.000000000000000E+000  0.000000000000000E+000  0.000000000000000E+000  0.000000000000000E+000  0.000000000000000E+000  0.000000000000000E+000  0.000000000000000E+000  0.000000000000000E+000  0.000000000000000E+000 -0.365393203833757E-001 +0.721932069680520E-009 +0.530623489591875E-009 +0.541501288253698E-009 -0.866939585202214E-001 -0.165964159238944E+000 -0.219823250385648E+000 -0.199045696220283E+000 -0.222462946688192E+000 -0.203880633973271E+000 -0.210523121663821E+000 -0.156021369212799E+000 +0.112847775568525E-008 +0.102978825466948E-008 -0.209652656577633E+000 -0.161430616944480E+000 -0.163652613263221E+000 -0.196595666860842E+000 -0.204548759767720E+000 -0.205692664602978E+000 -0.201977965470668E+000 -0.183476517688028E+000 +0.122816485870203E-007 -0.189480582373523E+000 -0.204953371758259E+000 -0.833245139553185E-008 +0.311599790414618E-008 +0.430231439363382E-008 +0.432622382362524E-009 +0.536350996949153E-008 -0.384030141020730E-009 +0.225712111223686E-007 -0.312361159160446E-008 +0.109862547947870E-007 -0.176991310496533E-009 -0.186799109513913E-008 +0.149610590582938E-008 +0.783767017953352E-008 -0.253528553706417E-008 +0.374130382230220E-008 -0.717010228967752E-009 +0.898540131188952E-009 +0.472125494255238E-008 +0.312541992286697E-008 +0.234489982986474E-008 +0.849048253925844E-008 +0.162335593856255E-007 +0.106735420501991E-008 -0.117626852702557E-008 +0.155005586144341E-008 +0.194215465931791E-008 +0.334192318263149E-008 +0.757012452723416E-009 +0.436448521767829E-008 +0.134961042341786E-008 +0.691316681677989E-008 +0.843573322306668E-008 +0.141452927149288E-007 +0.423662172011063E-008 -0.129991917230399E-008 +0.140046618746226E-008 -0.156476884510955E+000 -0.160931776426906E+000 +0.205128913854935E-009 -0.199639525990422E+000 -0.177799108769250E-008 -0.191457960311442E+000 -0.210455171779798E+000 +0.122992145357159E-007 -0.163301569940462E+000 -0.164368920643931E+000 -0.165902899026980E+000 -0.165004630843894E+000 -0.197107912224630E+000 -0.202152935217796E+000 -0.206117350188364E+000 -0.213925305886930E+000 +0.230523378164094E-009 +0.117609710859057E-008 -0.206510433188473E+000 +0.115675039547014E-007 -0.191104095916452E+000 -0.214800054430030E+000 +0.515070164297526E-008 +0.164777771427538E-007 -0.298202817994309E-008 +0.353920892592896E-008 -0.188591433580854E-007 -0.386102372296193E-007 -0.213095900844241E+000 -0.224216237168444E+000 -0.528700572210994E-008 -0.388545973173393E-008 +0.818802492474902E-008 -0.381116327385911E-007 -0.126081753926144E-007 -0.222258544378014E+000 -0.305350948970329E-007 +0.144887168929131E-008 +0.685042689241300E-009 -0.134193270015630E+000 -0.618394147000600E-008 +0.653608989154009E-008 -0.170140581623457E-007 -0.262717670308494E+000 -0.253049107551413E+000 -0.253670854964930E+000 +0.180245304237658E-007
        </DataArray>
      </PointData>
    </Piece>
  </UnstructuredGrid>
</VTKFile>
