<?xml version="1.0"?>
<VTKFile type="UnstructuredGrid" version="1.0" byte_order="LittleEndian">
  <UnstructuredGrid>
    <Piece NumberOfPoints="+155" NumberOfCells="+256">
      <Points>
        <DataArray type="Float64" NumberOfComponents="3" Name="Points" format="ascii">
           0.000000000000000E+000  0.000000000000000E+000  0.000000000000000E+000+0.100000000000000E+000  0.000000000000000E+000  0.000000000000000E+000+0.100000000000000E+000 +0.260000000000000E-001  0.000000000000000E+000 0.000000000000000E+000 +0.260000000000000E-001  0.000000000000000E+000+0.499999999999030E-002  0.000000000000000E+000  0.000000000000000E+000+0.999999999998248E-002  0.000000000000000E+000  0.000000000000000E+000+0.149999999999717E-001  0.000000000000000E+000  0.000000000000000E+000+0.199999999999560E-001  0.000000000000000E+000  0.000000000000000E+000+0.249999999999416E-001  0.000000000000000E+000  0.000000000000000E+000+0.299999999999273E-001  0.000000000000000E+000  0.000000000000000E+000+0.349999999999129E-001  0.000000000000000E+000  0.000000000000000E+000+0.399999999998958E-001  0.000000000000000E+000  0.000000000000000E+000+0.449999999998815E-001  0.000000000000000E+000  0.000000000000000E+000+0.499999999998685E-001  0.000000000000000E+000  0.000000000000000E+000+0.549999999998802E-001  0.000000000000000E+000  0.000000000000000E+000+0.599999999998943E-001  0.000000000000000E+000  0.000000000000000E+000+0.649999999999086E-001  0.000000000000000E+000  0.000000000000000E+000+0.699999999999197E-001  0.000000000000000E+000  0.000000000000000E+000+0.749999999999336E-001  0.000000000000000E+000  0.000000000000000E+000+0.799999999999474E-001  0.000000000000000E+000  0.000000000000000E+000+0.849999999999585E-001  0.000000000000000E+000  0.000000000000000E+000+0.899999999999729E-001  0.000000000000000E+000  0.000000000000000E+000+0.949999999999878E-001  0.000000000000000E+000  0.000000000000000E+000+0.100000000000000E+000 +0.433333333332438E-002  0.000000000000000E+000+0.100000000000000E+000 +0.866666666664460E-002  0.000000000000000E+000+0.100000000000000E+000 +0.129999999999662E-001  0.000000000000000E+000+0.100000000000000E+000 +0.173333333333106E-001  0.000000000000000E+000+0.100000000000000E+000 +0.216666666666560E-001  0.000000000000000E+000+0.950000000000138E-001 +0.260000000000000E-001  0.000000000000000E+000+0.900000000000276E-001 +0.260000000000000E-001  0.000000000000000E+000+0.850000000000415E-001 +0.260000000000000E-001  0.000000000000000E+000+0.800000000000553E-001 +0.260000000000000E-001  0.000000000000000E+000+0.750000000000691E-001 +0.260000000000000E-001  0.000000000000000E+000+0.700000000000829E-001 +0.260000000000000E-001  0.000000000000000E+000+0.650000000000968E-001 +0.260000000000000E-001  0.000000000000000E+000+0.600000000001106E-001 +0.260000000000000E-001  0.000000000000000E+000+0.550000000001244E-001 +0.260000000000000E-001  0.000000000000000E+000+0.500000000001369E-001 +0.260000000000000E-001  0.000000000000000E+000+0.450000000001247E-001 +0.260000000000000E-001  0.000000000000000E+000+0.400000000001100E-001 +0.260000000000000E-001  0.000000000000000E+000+0.350000000000951E-001 +0.260000000000000E-001  0.000000000000000E+000+0.300000000000835E-001 +0.260000000000000E-001  0.000000000000000E+000+0.250000000000691E-001 +0.260000000000000E-001  0.000000000000000E+000+0.200000000000548E-001 +0.260000000000000E-001  0.000000000000000E+000+0.150000000000431E-001 +0.260000000000000E-001  0.000000000000000E+000+0.100000000000282E-001 +0.260000000000000E-001  0.000000000000000E+000+0.500000000001274E-002 +0.260000000000000E-001  0.000000000000000E+000 0.000000000000000E+000 +0.216666666666761E-001  0.000000000000000E+000 0.000000000000000E+000 +0.173333333333561E-001  0.000000000000000E+000 0.000000000000000E+000 +0.130000000000335E-001  0.000000000000000E+000 0.000000000000000E+000 +0.866666666668923E-002  0.000000000000000E+000 0.000000000000000E+000 +0.433333333334393E-002  0.000000000000000E+000+0.474770501596061E-001 +0.449457555865549E-002  0.000000000000000E+000+0.624137095822587E-001 +0.218639104185592E-001  0.000000000000000E+000+0.274710820211137E-001 +0.439781066491993E-002  0.000000000000000E+000+0.775162404499768E-001 +0.218822875726493E-001  0.000000000000000E+000+0.175000000000489E-001 +0.216698729810677E-001  0.000000000000000E+000+0.374049377742800E-001 +0.217454153049271E-001  0.000000000000000E+000+0.873299162642599E-001 +0.493503711796043E-002  0.000000000000000E+000+0.962472232502677E-001 +0.151666666666384E-001  0.000000000000000E+000+0.361092965627013E-002 +0.107352657633569E-001  0.000000000000000E+000+0.524222487305538E-001 +0.217494710322139E-001  0.000000000000000E+000+0.724471979965309E-001 +0.480286472974082E-002  0.000000000000000E+000+0.574556233588582E-001 +0.465234046326982E-002  0.000000000000000E+000+0.374775082418216E-001 +0.443588749052796E-002  0.000000000000000E+000+0.174620748440649E-001 +0.432604372433973E-002  0.000000000000000E+000+0.274069445303662E-001 +0.216995189535168E-001  0.000000000000000E+000+0.875000000000345E-001 +0.216698729810898E-001  0.000000000000000E+000+0.768509429014877E-002 +0.215379337211246E-001  0.000000000000000E+000+0.963904321494850E-001 +0.661398939465712E-002  0.000000000000000E+000+0.727642177052906E-002 +0.443011470774208E-002  0.000000000000000E+000+0.124449834836647E-001 +0.431291926454894E-002  0.000000000000000E+000+0.149241258378327E-001 +0.860791945987163E-002  0.000000000000000E+000+0.199074884808963E-001 +0.868183890874860E-002  0.000000000000000E+000+0.173445817427756E-001 +0.129363585197896E-001  0.000000000000000E+000+0.223149927841523E-001 +0.130318645013867E-001  0.000000000000000E+000+0.124626594021863E-001 +0.128806353569139E-001  0.000000000000000E+000+0.148978737522776E-001 +0.172549170089808E-001  0.000000000000000E+000+0.100477085488613E-001 +0.173020481200621E-001  0.000000000000000E+000+0.248943288561033E-001 +0.874693478464290E-002  0.000000000000000E+000+0.273027333778438E-001 +0.131023208673426E-001  0.000000000000000E+000+0.298881968642471E-001 +0.882634524946797E-002  0.000000000000000E+000+0.322939746294813E-001 +0.132008562712349E-001  0.000000000000000E+000+0.348859478408316E-001 +0.889254633445792E-002  0.000000000000000E+000+0.372904969874290E-001 +0.132949678594278E-001  0.000000000000000E+000+0.398845499064174E-001 +0.897728704381017E-002  0.000000000000000E+000+0.422917602893396E-001 +0.133530215891990E-001  0.000000000000000E+000+0.448841050044180E-001 +0.904101635819934E-002  0.000000000000000E+000+0.472915329690292E-001 +0.134187777030845E-001  0.000000000000000E+000+0.448528380708523E-001 +0.175735435605107E-001  0.000000000000000E+000+0.498836917835918E-001 +0.911991320375936E-002  0.000000000000000E+000+0.522874069975051E-001 +0.135507216540452E-001  0.000000000000000E+000+0.548790812949033E-001 +0.921149949688830E-002  0.000000000000000E+000+0.572863231540567E-001 +0.136388959671376E-001  0.000000000000000E+000+0.598790589316415E-001 +0.918407375678816E-002  0.000000000000000E+000+0.623590312841999E-001 +0.136161871876397E-001  0.000000000000000E+000+0.648882846946340E-001 +0.929768835114423E-002  0.000000000000000E+000+0.673708037938968E-001 +0.137654412938815E-001  0.000000000000000E+000+0.698815075929149E-001 +0.944835648181582E-002  0.000000000000000E+000+0.723006618538128E-001 +0.138184730749027E-001  0.000000000000000E+000+0.699048578930071E-001 +0.178446291117357E-001  0.000000000000000E+000+0.748765735527623E-001 +0.937460219893974E-002  0.000000000000000E+000+0.773169545123332E-001 +0.138727132318244E-001  0.000000000000000E+000+0.798463307594286E-001 +0.960013646147148E-002  0.000000000000000E+000+0.823528893119287E-001 +0.139299421283865E-001  0.000000000000000E+000+0.847816044956594E-001 +0.970343309172691E-002  0.000000000000000E+000+0.872193013720580E-001 +0.140356141943716E-001  0.000000000000000E+000+0.894050078821107E-001 +0.926570675087459E-002  0.000000000000000E+000+0.824082332243445E-001 +0.499899823812024E-002  0.000000000000000E+000+0.674500068614159E-001 +0.480706579594959E-002  0.000000000000000E+000+0.102343281449715E-001 +0.864992134013922E-002  0.000000000000000E+000+0.125217794319013E-001 +0.216274619718725E-001  0.000000000000000E+000+0.530727028577484E-002 +0.174243678533301E-001  0.000000000000000E+000+0.927072212021592E-001 +0.216524795078309E-001  0.000000000000000E+000+0.825446721529249E-001 +0.217623324626207E-001  0.000000000000000E+000+0.248287209997012E-001 +0.173700977842713E-001  0.000000000000000E+000+0.774559974953847E-001 +0.467369623047021E-002  0.000000000000000E+000+0.524492410994514E-001 +0.457972145376216E-002  0.000000000000000E+000+0.424538688853401E-001 +0.449146107519883E-002  0.000000000000000E+000+0.624631306950981E-001 +0.456708086287553E-002  0.000000000000000E+000+0.324537891613090E-001 +0.442543162322896E-002  0.000000000000000E+000+0.224558290336793E-001 +0.435877134710853E-002  0.000000000000000E+000+0.323740723540678E-001 +0.216972078724282E-001  0.000000000000000E+000+0.573773859284986E-001 +0.217991888252024E-001  0.000000000000000E+000+0.198976948798363E-001 +0.173400626964691E-001  0.000000000000000E+000+0.962582298363988E-001 +0.110362954798282E-001  0.000000000000000E+000+0.224563524297887E-001 +0.217077368256298E-001  0.000000000000000E+000+0.921069635138181E-001 +0.135809272238655E-001  0.000000000000000E+000+0.923858042830145E-001 +0.440245293971425E-002  0.000000000000000E+000+0.474148725805479E-001 +0.218043592700527E-001  0.000000000000000E+000+0.297698604248976E-001 +0.173792298551515E-001  0.000000000000000E+000+0.734871392924924E-002 +0.128570511094810E-001  0.000000000000000E+000+0.363766117527133E-002 +0.655253480415738E-002  0.000000000000000E+000+0.347814593749260E-001 +0.174396077677385E-001  0.000000000000000E+000+0.964468684680814E-001 +0.193951920109048E-001  0.000000000000000E+000+0.398535820828240E-001 +0.175636784640132E-001  0.000000000000000E+000+0.424210384181232E-001 +0.217811660999173E-001  0.000000000
[...]
      <PointData>
        <DataArray type="Float64" NumberOfComponents="1" Name="T__TempConverged" format="ascii">
           +0.263150000000000E+003 +0.263150000000000E+003 +0.263150000000000E+003 +0.263150000000000E+003 +0.263150000000000E+003 +0.263150000000000E+003 +0.263150000000000E+003 +0.263150000000000E+003 +0.263150000000000E+003 +0.263150000000000E+003 +0.263150000000000E+003 +0.263150000000000E+003 +0.263150000000000E+003 +0.263150000000000E+003 +0.263150000000000E+003 +0.263150000000000E+003 +0.263150000000000E+003 +0.263150000000000E+003 +0.263150000000000E+003 +0.263150000000000E+003 +0.263150000000000E+003 +0.263150000000000E+003 +0.263150000000000E+003 +0.281045743392824E+003 +0.294281704871507E+003 +0.298516018003615E+003 +0.294350308252537E+003 +0.281073199992432E+003 +0.263150000000000E+003 +0.263150000000000E+003 +0.263150000000000E+003 +0.263150000000000E+003 +0.263150000000000E+003 +0.263150000000000E+003 +0.263150000000000E+003 +0.263150000000000E+003 +0.263150000000000E+003 +0.263150000000000E+003 +0.263150000000000E+003 +0.263150000000000E+003 +0.263150000000000E+003 +0.263150000000000E+003 +0.263150000000000E+003 +0.263150000000000E+003 +0.263150000000000E+003 +0.263150000000000E+003 +0.263150000000000E+003 +0.279339688313652E+003 +0.293677930850067E+003 +0.298281430550163E+003 +0.294279034938428E+003 +0.281056597150791E+003 +0.280531553675141E+003 +0.279506576084435E+003 +0.280267994527397E+003 +0.279443047004372E+003 +0.280072418910792E+003 +0.279856843915306E+003 +0.281834697255594E+003 +0.297395971774291E+003 +0.297139819678124E+003 +0.279857123364401E+003 +0.281411824796320E+003 +0.281001481722850E+003 +0.280370250114319E+003 +0.280058171501666E+003 +0.279989635363930E+003 +0.280072938275413E+003 +0.280404966961738E+003 +0.288997573726751E+003 +0.280712413305403E+003 +0.280003585646997E+003 +0.293841560334508E+003 +0.293946555448744E+003 +0.298414912383813E+003 +0.298398602875838E+003 +0.298359514976173E+003 +0.294047526006090E+003 +0.293856749409771E+003 +0.294051084077644E+003 +0.298385703943106E+003 +0.294185611331472E+003 +0.298380152668643E+003 +0.294303891715791E+003 +0.298375966656546E+003 +0.294445372741924E+003 +0.298361430660176E+003 +0.294544534655762E+003 +0.298335931108187E+003 +0.293484613407768E+003 +0.294657727588632E+003 +0.298298536071223E+003 +0.294798287401159E+003 +0.298282464049933E+003 +0.294723586755606E+003 +0.298273484328683E+003 +0.294885004644842E+003 +0.298247259443672E+003 +0.295106818064163E+003 +0.298217832836615E+003 +0.292933206710709E+003 +0.294960225472538E+003 +0.298175102387050E+003 +0.295328195560861E+003 +0.298122884032600E+003 +0.295529034903780E+003 +0.298089022940717E+003 +0.294979192848817E+003 +0.281995698925410E+003 +0.281443002318364E+003 +0.294050553131391E+003 +0.280168173672431E+003 +0.293259344815575E+003 +0.280438318980435E+003 +0.279804417561733E+003 +0.293864567886469E+003 +0.280981641866632E+003 +0.280784761737978E+003 +0.280539565473767E+003 +0.280702562911972E+003 +0.280347384227710E+003 +0.280153130508403E+003 +0.280002457479732E+003 +0.279709462228682E+003 +0.293914328630427E+003 +0.297535760241651E+003 +0.279959014010034E+003 +0.298346780812149E+003 +0.280536139329535E+003 +0.279672490479849E+003 +0.293841728528388E+003 +0.298426322161149E+003 +0.288814260733437E+003 +0.293722881527929E+003 +0.289048732269817E+003 +0.293480053517526E+003 +0.279750873457937E+003 +0.279365910276917E+003 +0.293486718569679E+003 +0.293420591254227E+003 +0.293139784938663E+003 +0.293027124867551E+003 +0.293242108831657E+003 +0.279396725074570E+003 +0.292499514074451E+003 +0.292833838492425E+003 +0.292602066745771E+003 +0.282069778549246E+003 +0.294414374433336E+003 +0.297594395911628E+003 +0.293569742865387E+003 +0.275689505561428E+003 +0.275654047593602E+003 +0.275648506757254E+003 +0.293827864998887E+003
        </DataArray>
        <DataArray type="Float64" NumberOfComponents="1" Name="R__Res" format="ascii">
            0.000000000000000E+000  0.000000000000000E+000  0.000000000000000E+000  0.000000000000000E+000  0.000000000000000E+000  0.000000000000000E+000  0.000000000000000E+000  0.000000000000000E+000  0.000000000000000E+000  0.000000000000000E+000  0.000000000000000E+000  0.000000000000000E+000  0.000000000000000E+000  0.000000000000000E+000  0.000000000000000E+000  0.000000000000000E+000  0.000000000000000E+000  0.000000000000000E+000  0.000000000000000E+000  0.000000000000000E+000  0.000000000000000E+000  0.000000000000000E+000  0.000000000000000E+000 -0.672281995297354E-001 +0.219522350297652E-008 +0.195613580888931E-008 +0.213938239346234E-008 -0.659058574699306E-001  0.000000000000000E+000  0.000000000000000E+000  0.000000000000000E+000  0.000000000000000E+000  0.000000000000000E+000  0.000000000000000E+000  0.000000000000000E+000  0.000000000000000E+000  0.000000000000000E+000  0.000000000000000E+000  0.000000000000000E+000  0.000000000000000E+000  0.000000000000000E+000  0.000000000000000E+000  0.000000000000000E+000  0.000000000000000E+000  0.000000000000000E+000  0.000000000000000E+000  0.000000000000000E+000 -0.534983163014271E-001 +0.297759839007483E-008 +0.174409048314672E-008 +0.215863116270754E-008 -0.664688406201600E-001 -0.269508653355963E+000 -0.279368475327856E+000 -0.271230146010256E+000 -0.281439793225782E+000 -0.272362573371664E+000 -0.276081686489932E+000 -0.250248497286465E+000 +0.386434406696168E-008 +0.359050622567025E-008 -0.274145613817272E+000 -0.260073352187831E+000 -0.264393674546836E+000 -0.270808393873418E+000 -0.273321870266457E+000 -0.272612177301996E+000 -0.269220829396552E+000 -0.248666480925197E+000 +0.111603664088022E-007 -0.261714585002434E+000 -0.272750808549894E+000 +0.636112718055415E-009 +0.117043157388252E-007 +0.822554147017485E-008 +0.553407442094311E-008 +0.807001188096734E-008 +0.581289949508346E-008 +0.155025148274035E-007 +0.333076366487717E-008 +0.130551688348746E-007 +0.590850057768932E-008 +0.158711388476007E-008 +0.593720494990180E-008 +0.592173021729536E-008 +0.746352979419385E-008 +0.650047726757919E-008 +0.431224389529916E-008 +0.764643259820730E-008 +0.213214539357409E-007 +0.929623600320895E-008 +0.401626232271468E-008 +0.159090880469392E-007 +0.137169858804853E-007 +0.856370085955405E-008 +0.352491824617829E-008 +0.603252292563639E-008 +0.610049033511473E-008 +0.829059088047757E-008 +0.501605745828471E-008 +0.104163366820842E-007 +0.511580555695446E-008 +0.110050063506506E-007 +0.149524184145378E-007 +0.409135914036796E-008 +0.122301498928223E-007 +0.363552454807348E-008 +0.543560907395602E-008 -0.250627687940221E+000 -0.258990330841919E+000 +0.326078175572064E-008 -0.268262671656851E+000 +0.272403699597135E-008 -0.264886905348767E+000 -0.273053161183191E+000 +0.943626643490347E-008 -0.264830085664338E+000 -0.266281286071811E+000 -0.269151295290492E+000 -0.267919864114941E+000 -0.270793218018919E+000 -0.272439689748940E+000 -0.273661615603751E+000 -0.276353258866330E+000 -0.424266577425669E-008 +0.401354260937126E-008 -0.272976759785319E+000 +0.209136525874953E-007 -0.268738442068287E+000 -0.277175606909197E+000 +0.140212410570939E-007 +0.221296386770931E-007 -0.323796101042717E-009 +0.328710170194313E-009 -0.161402997633786E-007 +0.120303913497821E-007 -0.276637905844391E+000 -0.281819277298896E+000 +0.161997166792105E-007 +0.143409151220908E-008 -0.549518253123438E-008 +0.157861412830584E-007 +0.121684009535272E-007 -0.279584947883920E+000 -0.149312040509386E-007 +0.436637752621039E-007 -0.109411528725900E-007 -0.219131842920616E+000 +0.141088304372872E-007 +0.280646850203681E-008 -0.220177653886822E-009 -0.417633060739545E+000 -0.411097511121498E+000 -0.411691194099268E+000 -0.580461068100391E-009
        </DataArray>
      </PointData>
    </Piece>
  </UnstructuredGrid>
</VTKFile>
