<?xml version="1.0"?>
<VTKFile type="UnstructuredGrid" version="1.0" byte_order="LittleEndian">
  <UnstructuredGrid>
    <Piece NumberOfPoints="+155" NumberOfCells="+256">
      <Points>
        <DataArray type="Float64" NumberOfComponents="3" Name="Points" format="ascii">
           0.000000000000000E+000  0.000000000000000E+000  0.000000000000000E+000+0.100000000000000E+000  0.000000000000000E+000  0.000000000000000E+000+0.100000000000000E+000 +0.260000000000000E-001  0.000000000000000E+000 0.000000000000000E+000 +0.260000000000000E-001  0.000000000000000E+000+0.499999999999030E-002  0.000000000000000E+000  0.000000000000000E+000+0.999999999998248E-002  0.000000000000000E+000  0.000000000000000E+000+0.149999999999717E-001  0.000000000000000E+000  0.000000000000000E+000+0.199999999999560E-001  0.000000000000000E+000  0.000000000000000E+000+0.249999999999416E-001  0.000000000000000E+000  0.000000000000000E+000+0.299999999999273E-001  0.000000000000000E+000  0.000000000000000E+000+0.349999999999129E-001  0.000000000000000E+000  0.000000000000000E+000+0.399999999998958E-001  0.000000000000000E+000  0.000000000000000E+000+0.449999999998815E-001  0.000000000000000E+000  0.000000000000000E+000+0.499999999998685E-001  0.000000000000000E+000  0.000000000000000E+000+0.549999999998802E-001  0.000000000000000E+000  0.000000000000000E+000+0.599999999998943E-001  0.000000000000000E+000  0.000000000000000E+000+0.649999999999086E-001  0.000000000000000E+000  0.000000000000000E+000+0.699999999999197E-001  0.000000000000000E+000  0.000000000000000E+000+0.749999999999336E-001  0.000000000000000E+000  0.000000000000000E+000+0.799999999999474E-001  0.000000000000000E+000  0.000000000000000E+000+0.849999999999585E-001  0.000000000000000E+000  0.000000000000000E+000+0.899999999999729E-001  0.000000000000000E+000  0.000000000000000E+000+0.949999999999878E-001  0.000000000000000E+000  0.000000000000000E+000+0.100000000000000E+000 +0.433333333332438E-002  0.000000000000000E+000+0.100000000000000E+000 +0.866666666664460E-002  0.000000000000000E+000+0.100000000000000E+000 +0.129999999999662E-001  0.000000000000000E+000+0.100000000000000E+000 +0.173333333333106E-001  0.000000000000000E+000+0.100000000000000E+000 +0.216666666666560E-001  0.000000000000000E+000+0.950000000000138E-001 +0.260000000000000E-001  0.000000000000000E+000+0.900000000000276E-001 +0.260000000000000E-001  0.000000000000000E+000+0.850000000000415E-001 +0.260000000000000E-001  0.000000000000000E+000+0.800000000000553E-001 +0.260000000000000E-001  0.000000000000000E+000+0.750000000000691E-001 +0.260000000000000E-001  0.000000000000000E+000+0.700000000000829E-001 +0.260000000000000E-001  0.000000000000000E+000+0.650000000000968E-001 +0.260000000000000E-001  0.000000000000000E+000+0.600000000001106E-001 +0.260000000000000E-001  0.000000000000000E+000+0.550000000001244E-001 +0.260000000000000E-001  0.000000000000000E+000+0.500000000001369E-001 +0.260000000000000E-001  0.000000000000000E+000+0.450000000001247E-001 +0.260000000000000E-001  0.000000000000000E+000+0.400000000001100E-001 +0.260000000000000E-001  0.000000000000000E+000+0.350000000000951E-001 +0.260000000000000E-001  0.000000000000000E+000+0.300000000000835E-001 +0.260000000000000E-001  0.000000000000000E+000+0.250000000000691E-001 +0.260000000000000E-001  0.000000000000000E+000+0.200000000000548E-001 +0.260000000000000E-001  0.000000000000000E+000+0.150000000000431E-001 +0.260000000000000E-001  0.000000000000000E+000+0.100000000000282E-001 +0.260000000000000E-001  0.000000000000000E+000+0.500000000001274E-002 +0.260000000000000E-001  0.000000000000000E+000 0.000000000000000E+000 +0.216666666666761E-001  0.000000000000000E+000 0.000000000000000E+000 +0.173333333333561E-001  0.000000000000000E+000 0.000000000000000E+000 +0.130000000000335E-001  0.000000000000000E+000 0.000000000000000E+000 +0.866666666668923E-002  0.000000000000000E+000 0.000000000000000E+000 +0.433333333334393E-002  0.000000000000000E+000+0.474770501596061E-001 +0.449457555865549E-002  0.000000000000000E+000+0.624137095822587E-001 +0.218639104185592E-001  0.000000000000000E+000+0.274710820211137E-001 +0.439781066491993E-002  0.000000000000000E+000+0.775162404499768E-001 +0.218822875726493E-001  0.000000000000000E+000+0.175000000000489E-001 +0.216698729810677E-001  0.000000000000000E+000+0.374049377742800E-001 +0.217454153049271E-001  0.000000000000000E+000+0.873299162642599E-001 +0.493503711796043E-002  0.000000000000000E+000+0.962472232502677E-001 +0.151666666666384E-001  0.000000000000000E+000+0.361092965627013E-002 +0.107352657633569E-001  0.000000000000000E+000+0.524222487305538E-001 +0.217494710322139E-001  0.000000000000000E+000+0.724471979965309E-001 +0.480286472974082E-002  0.000000000000000E+000+0.574556233588582E-001 +0.465234046326982E-002  0.000000000000000E+000+0.374775082418216E-001 +0.443588749052796E-002  0.000000000000000E+000+0.174620748440649E-001 +0.432604372433973E-002  0.000000000000000E+000+0.274069445303662E-001 +0.216995189535168E-001  0.000000000000000E+000+0.875000000000345E-001 +0.216698729810898E-001  0.000000000000000E+000+0.768509429014877E-002 +0.215379337211246E-001  0.000000000000000E+000+0.963904321494850E-001 +0.661398939465712E-002  0.000000000000000E+000+0.727642177052906E-002 +0.443011470774208E-002  0.000000000000000E+000+0.124449834836647E-001 +0.431291926454894E-002  0.000000000000000E+000+0.149241258378327E-001 +0.860791945987163E-002  0.000000000000000E+000+0.199074884808963E-001 +0.868183890874860E-002  0.000000000000000E+000+0.173445817427756E-001 +0.129363585197896E-001  0.000000000000000E+000+0.223149927841523E-001 +0.130318645013867E-001  0.000000000000000E+000+0.124626594021863E-001 +0.128806353569139E-001  0.000000000000000E+000+0.148978737522776E-001 +0.172549170089808E-001  0.000000000000000E+000+0.100477085488613E-001 +0.173020481200621E-001  0.000000000000000E+000+0.248943288561033E-001 +0.874693478464290E-002  0.000000000000000E+000+0.273027333778438E-001 +0.131023208673426E-001  0.000000000000000E+000+0.298881968642471E-001 +0.882634524946797E-002  0.000000000000000E+000+0.322939746294813E-001 +0.132008562712349E-001  0.000000000000000E+000+0.348859478408316E-001 +0.889254633445792E-002  0.000000000000000E+000+0.372904969874290E-001 +0.132949678594278E-001  0.000000000000000E+000+0.398845499064174E-001 +0.897728704381017E-002  0.000000000000000E+000+0.422917602893396E-001 +0.133530215891990E-001  0.000000000000000E+000+0.448841050044180E-001 +0.904101635819934E-002  0.000000000000000E+000+0.472915329690292E-001 +0.134187777030845E-001  0.000000000000000E+000+0.448528380708523E-001 +0.175735435605107E-001  0.000000000000000E+000+0.498836917835918E-001 +0.911991320375936E-002  0.000000000000000E+000+0.522874069975051E-001 +0.135507216540452E-001  0.000000000000000E+000+0.548790812949033E-001 +0.921149949688830E-002  0.000000000000000E+000+0.572863231540567E-001 +0.136388959671376E-001  0.000000000000000E+000+0.598790589316415E-001 +0.918407375678816E-002  0.000000000000000E+000+0.623590312841999E-001 +0.136161871876397E-001  0.000000000000000E+000+0.648882846946340E-001 +0.929768835114423E-002  0.000000000000000E+000+0.673708037938968E-001 +0.137654412938815E-001  0.000000000000000E+000+0.698815075929149E-001 +0.944835648181582E-002  0.000000000000000E+000+0.723006618538128E-001 +0.138184730749027E-001  0.000000000000000E+000+0.699048578930071E-001 +0.178446291117357E-001  0.000000000000000E+000+0.748765735527623E-001 +0.937460219893974E-002  0.000000000000000E+000+0.773169545123332E-001 +0.138727132318244E-001  0.000000000000000E+000+0.798463307594286E-001 +0.960013646147148E-002  0.000000000000000E+000+0.823528893119287E-001 +0.139299421283865E-001  0.000000000000000E+000+0.847816044956594E-001 +0.970343309172691E-002  0.000000000000000E+000+0.872193013720580E-001 +0.140356141943716E-001  0.000000000000000E+000+0.894050078821107E-001 +0.926570675087459E-002  0.000000000000000E+000+0.824082332243445E-001 +0.499899823812024E-002  0.000000000000000E+000+0.674500068614159E-001 +0.480706579594959E-002  0.000000000000000E+000+0.102343281449715E-001 +0.864992134013922E-002  0.000000000000000E+000+0.125217794319013E-001 +0.216274619718725E-001  0.000000000000000E+000+0.530727028577484E-002 +0.174243678533301E-001  0.000000000000000E+000+0.927072212021592E-001 +0.216524795078309E-001  0.000000000000000E+000+0.825446721529249E-001 +0.217623324626207E-001  0.000000000000000E+000+0.248287209997012E-001 +0.173700977842713E-001  0.000000000000000E+000+0.774559974953847E-001 +0.467369623047021E-002  0.000000000000000E+000+0.524492410994514E-001 +0.457972145376216E-002  0.000000000000000E+000+0.424538688853401E-001 +0.449146107519883E-002  0.000000000000000E+000+0.624631306950981E-001 +0.456708086287553E-002  0.000000000000000E+000+0.324537891613090E-001 +0.442543162322896E-002  0.000000000000000E+000+0.224558290336793E-001 +0.435877134710853E-002  0.000000000000000E+000+0.323740723540678E-001 +0.216972078724282E-001  0.000000000000000E+000+0.573773859284986E-001 +0.217991888252024E-001  0.000000000000000E+000+0.198976948798363E-001 +0.173400626964691E-001  0.000000000000000E+000+0.962582298363988E-001 +0.110362954798282E-001  0.000000000000000E+000+0.224563524297887E-001 +0.217077368256298E-001  0.000000000000000E+000+0.921069635138181E-001 +0.135809272238655E-001  0.000000000000000E+000+0.923858042830145E-001 +0.440245293971425E-002  0.000000000000000E+000+0.474148725805479E-001 +0.218043592700527E-001  0.000000000000000E+000+0.297698604248976E-001 +0.173792298551515E-001  0.000000000000000E+000+0.734871392924924E-002 +0.128570511094810E-001  0.000000000000000E+000+0.363766117527133E-002 +0.655253480415738E-002  0.000000000000000E+000+0.347814593749260E-001 +0.174396077677385E-001  0.000000000000000E+000+0.964468684680814E-001 +0.193951920109048E-001  0.000000000000000E+000+0.398535820828240E-001 +0.175636784640132E-001  0.000000000000000E+000+0.424210384181232E-001 +0.217811660999173E-001  0.000000000
[...]
      <PointData>
        <DataArray type="Float64" NumberOfComponents="1" Name="T__TempConverged" format="ascii">
           +0.263150000000000E+003 +0.263150000000000E+003 +0.263150000000000E+003 +0.263150000000000E+003 +0.263150000000000E+003 +0.263150000000000E+003 +0.263150000000000E+003 +0.263150000000000E+003 +0.263150000000000E+003 +0.263150000000000E+003 +0.263150000000000E+003 +0.263150000000000E+003 +0.263150000000000E+003 +0.263150000000000E+003 +0.263150000000000E+003 +0.263150000000000E+003 +0.263150000000000E+003 +0.263150000000000E+003 +0.263150000000000E+003 +0.263150000000000E+003 +0.263150000000000E+003 +0.263150000000000E+003 +0.263150000000000E+003 +0.284628520560966E+003 +0.297965366122770E+003 +0.300421083973619E+003 +0.297994289133751E+003 +0.284641960380110E+003 +0.263150000000000E+003 +0.263150000000000E+003 +0.263150000000000E+003 +0.263150000000000E+003 +0.263150000000000E+003 +0.263150000000000E+003 +0.263150000000000E+003 +0.263150000000000E+003 +0.263150000000000E+003 +0.263150000000000E+003 +0.263150000000000E+003 +0.263150000000000E+003 +0.263150000000000E+003 +0.263150000000000E+003 +0.263150000000000E+003 +0.263150000000000E+003 +0.263150000000000E+003 +0.263150000000000E+003 +0.263150000000000E+003 +0.282722237580414E+003 +0.297417882771892E+003 +0.300343057355163E+003 +0.297989030847348E+003 +0.284627270830929E+003 +0.284193786548669E+003 +0.282941785535946E+003 +0.283864156836859E+003 +0.282862181676685E+003 +0.283629389318442E+003 +0.283370294640642E+003 +0.285663474563378E+003 +0.299838371152548E+003 +0.299746429900631E+003 +0.283357769947489E+003 +0.285210456754672E+003 +0.284733481660843E+003 +0.283995621148216E+003 +0.283609152387540E+003 +0.283526599875237E+003 +0.283593898411806E+003 +0.283961948172413E+003 +0.293398041263914E+003 +0.284268387824340E+003 +0.283549175026521E+003 +0.297465868978401E+003 +0.297541449638347E+003 +0.300562832112601E+003 +0.300545535047217E+003 +0.300523526318798E+003 +0.297649367838429E+003 +0.297434189100906E+003 +0.297624757581426E+003 +0.300537927586677E+003 +0.297727715088187E+003 +0.300534653866533E+003 +0.297820849823026E+003 +0.300533772799286E+003 +0.297927291186732E+003 +0.300528575399091E+003 +0.298002424472959E+003 +0.300515776694057E+003 +0.297191197092473E+003 +0.298081022216488E+003 +0.300488635465371E+003 +0.298188885868543E+003 +0.300480796392553E+003 +0.298112533409046E+003 +0.300480510545441E+003 +0.298225118022181E+003 +0.300465026649014E+003 +0.298394066187910E+003 +0.300452719035548E+003 +0.296744887325497E+003 +0.298264310631487E+003 +0.300428157363712E+003 +0.298545367896477E+003 +0.300378692770253E+003 +0.298717156914137E+003 +0.300338907608290E+003 +0.298310330515000E+003 +0.285854598627417E+003 +0.285239750956634E+003 +0.297639342522635E+003 +0.283729356816793E+003 +0.296822415543025E+003 +0.283946732407787E+003 +0.283273488027809E+003 +0.297484916932142E+003 +0.284736311966474E+003 +0.284487711304638E+003 +0.284193456104217E+003 +0.284407016005033E+003 +0.283961276828487E+003 +0.283725797951882E+003 +0.283541234666294E+003 +0.283187857813856E+003 +0.297524536274706E+003 +0.299934436153915E+003 +0.283493239430699E+003 +0.300387490299703E+003 +0.284131933587172E+003 +0.283148348559848E+003 +0.297467462929913E+003 +0.300462712125088E+003 +0.293197630187490E+003 +0.297374647056533E+003 +0.293420578882063E+003 +0.297175973746584E+003 +0.283239634312781E+003 +0.282772730728655E+003 +0.297189845373328E+003 +0.297124292573323E+003 +0.296904975197425E+003 +0.296824654936633E+003 +0.296964629200182E+003 +0.282811587945054E+003 +0.296333332057720E+003 +0.296674337258839E+003 +0.296450097645077E+003 +0.285928651497792E+003 +0.297785563472592E+003 +0.299899477230499E+003 +0.297136532698533E+003 +0.278714168417932E+003 +0.278685295335315E+003 +0.278678480906184E+003 +0.297370088346970E+003
        </DataArray>
        <DataArray type="Float64" NumberOfComponents="1" Name="R__Res" format="ascii">
            0.000000000000000E+000  0.000000000000000E+000  0.000000000000000E+000  0.000000000000000E+000  0.000000000000000E+000  0.000000000000000E+000  0.000000000000000E+000  0.000000000000000E+000  0.000000000000000E+000  0.000000000000000E+000  0.000000000000000E+000  0.000000000000000E+000  0.000000000000000E+000  0.000000000000000E+000  0.000000000000000E+000  0.000000000000000E+000  0.000000000000000E+000  0.000000000000000E+000  0.000000000000000E+000  0.000000000000000E+000  0.000000000000000E+000  0.000000000000000E+000  0.000000000000000E+000 -0.106652546886693E+000 +0.521762633098888E-009 +0.212780792985257E-009 +0.507349884326658E-009 -0.103128076636945E+000  0.000000000000000E+000  0.000000000000000E+000  0.000000000000000E+000  0.000000000000000E+000  0.000000000000000E+000  0.000000000000000E+000  0.000000000000000E+000  0.000000000000000E+000  0.000000000000000E+000  0.000000000000000E+000  0.000000000000000E+000  0.000000000000000E+000  0.000000000000000E+000  0.000000000000000E+000  0.000000000000000E+000  0.000000000000000E+000  0.000000000000000E+000  0.000000000000000E+000  0.000000000000000E+000 -0.158156921603712E+000 +0.739076799760596E-009 +0.207234202020956E-009 +0.514936815410039E-009 -0.103860368171210E+000 -0.593128137375668E+000 -0.552072391754770E+000 -0.535404882703991E+000 -0.555726342745116E+000 -0.537786639611576E+000 -0.545937487967884E+000 -0.512282394878617E+000 +0.566968416659819E-009 +0.554269130592644E-009 -0.540868944659057E+000 -0.540585009922095E+000 -0.568298183503529E+000 -0.550806942843980E+000 -0.539893417321444E+000 -0.538313688356884E+000 -0.532747800563388E+000 -0.486259396448904E+000 +0.373681929843883E-008 -0.482100251520809E+000 -0.544731316028948E+000 -0.102372457178035E-007 +0.102377148980537E-007 +0.495546681467118E-008 +0.737736649547571E-009 +0.480943657121813E-008 +0.135259403677424E-008 +0.145989309530137E-007 -0.699455204866695E-008 +0.173958035754040E-007 +0.635012042948802E-010 -0.190104726405238E-008 +0.134905508986094E-008 +0.145692080621984E-008 +0.587697002174536E-008 +0.114812448437362E-008 -0.152438306422198E-008 +0.277222944600197E-008 +0.263772141906315E-007 +0.856438564511564E-008 -0.195679622505551E-008 +0.194149629706430E-007 +0.156131014228400E-007 +0.653742526779411E-008 -0.355168394694516E-008 +0.130013955157438E-008 +0.329877208882223E-008 +0.408645695060272E-008 -0.136265199124352E-008 -0.226115859369713E-008 +0.665683952405516E-009 +0.666939592441906E-008 +0.207493715542739E-007 +0.667520849706449E-008 +0.639968456006557E-008 -0.133120142686849E-008 +0.116988330134404E-008 -0.502953735151996E+000 -0.540157029494709E+000 -0.749467876648424E-008 -0.528270439250321E+000 +0.103588115862863E-007 -0.490214103727596E+000 -0.535738292284374E+000 +0.517662601673408E-008 -0.553917018752299E+000 -0.577690239612512E+000 -0.578250601109986E+000 -0.575868474347249E+000 -0.534424558772971E+000 -0.538274913693824E+000 -0.540568127807561E+000 -0.545849424923560E+000 -0.904779140498135E-009 +0.578444625531915E-009 -0.539299122059703E+000 +0.602742805666523E-008 -0.526125696325936E+000 -0.548460373960471E+000 +0.194641001094453E-007 +0.281745865249317E-007 -0.414404688342529E-008 -0.432019753304758E-009 -0.213254871539448E-007 +0.410907685655104E-008 -0.546668140050501E+000 -0.556939379741472E+000 +0.262058206246252E-007 -0.332524874302464E-008 -0.108542494992037E-007 +0.335388450345420E-008 -0.166018194747153E-007 -0.552190750607469E+000 -0.145760772340964E-007 +0.181856059100483E-007 -0.147758680846266E-007 -0.436782274634621E+000 -0.379738535061236E-008 +0.104770714326463E-008 +0.844718006653977E-008 -0.556473289934620E+000 -0.543605739521900E+000 -0.544610906286495E+000 -0.150422185818400E-008
        </DataArray>
      </PointData>
    </Piece>
  </UnstructuredGrid>
</VTKFile>
