<?xml version="1.0"?>
<VTKFile type="UnstructuredGrid" version="1.0" byte_order="LittleEndian">
  <UnstructuredGrid>
    <Piece NumberOfPoints="+155" NumberOfCells="+256">
      <Points>
        <DataArray type="Float64" NumberOfComponents="3" Name="Points" format="ascii">
           0.000000000000000E+000  0.000000000000000E+000  0.000000000000000E+000+0.100000000000000E+000  0.000000000000000E+000  0.000000000000000E+000+0.100000000000000E+000 +0.260000000000000E-001  0.000000000000000E+000 0.000000000000000E+000 +0.260000000000000E-001  0.000000000000000E+000+0.499999999999030E-002  0.000000000000000E+000  0.000000000000000E+000+0.999999999998248E-002  0.000000000000000E+000  0.000000000000000E+000+0.149999999999717E-001  0.000000000000000E+000  0.000000000000000E+000+0.199999999999560E-001  0.000000000000000E+000  0.000000000000000E+000+0.249999999999416E-001  0.000000000000000E+000  0.000000000000000E+000+0.299999999999273E-001  0.000000000000000E+000  0.000000000000000E+000+0.349999999999129E-001  0.000000000000000E+000  0.000000000000000E+000+0.399999999998958E-001  0.000000000000000E+000  0.000000000000000E+000+0.449999999998815E-001  0.000000000000000E+000  0.000000000000000E+000+0.499999999998685E-001  0.000000000000000E+000  0.000000000000000E+000+0.549999999998802E-001  0.000000000000000E+000  0.000000000000000E+000+0.599999999998943E-001  0.000000000000000E+000  0.000000000000000E+000+0.649999999999086E-001  0.000000000000000E+000  0.000000000000000E+000+0.699999999999197E-001  0.000000000000000E+000  0.000000000000000E+000+0.749999999999336E-001  0.000000000000000E+000  0.000000000000000E+000+0.799999999999474E-001  0.000000000000000E+000  0.000000000000000E+000+0.849999999999585E-001  0.000000000000000E+000  0.000000000000000E+000+0.899999999999729E-001  0.000000000000000E+000  0.000000000000000E+000+0.949999999999878E-001  0.000000000000000E+000  0.000000000000000E+000+0.100000000000000E+000 +0.433333333332438E-002  0.000000000000000E+000+0.100000000000000E+000 +0.866666666664460E-002  0.000000000000000E+000+0.100000000000000E+000 +0.129999999999662E-001  0.000000000000000E+000+0.100000000000000E+000 +0.173333333333106E-001  0.000000000000000E+000+0.100000000000000E+000 +0.216666666666560E-001  0.000000000000000E+000+0.950000000000138E-001 +0.260000000000000E-001  0.000000000000000E+000+0.900000000000276E-001 +0.260000000000000E-001  0.000000000000000E+000+0.850000000000415E-001 +0.260000000000000E-001  0.000000000000000E+000+0.800000000000553E-001 +0.260000000000000E-001  0.000000000000000E+000+0.750000000000691E-001 +0.260000000000000E-001  0.000000000000000E+000+0.700000000000829E-001 +0.260000000000000E-001  0.000000000000000E+000+0.650000000000968E-001 +0.260000000000000E-001  0.000000000000000E+000+0.600000000001106E-001 +0.260000000000000E-001  0.000000000000000E+000+0.550000000001244E-001 +0.260000000000000E-001  0.000000000000000E+000+0.500000000001369E-001 +0.260000000000000E-001  0.000000000000000E+000+0.450000000001247E-001 +0.260000000000000E-001  0.000000000000000E+000+0.400000000001100E-001 +0.260000000000000E-001  0.000000000000000E+000+0.350000000000951E-001 +0.260000000000000E-001  0.000000000000000E+000+0.300000000000835E-001 +0.260000000000000E-001  0.000000000000000E+000+0.250000000000691E-001 +0.260000000000000E-001  0.000000000000000E+000+0.200000000000548E-001 +0.260000000000000E-001  0.000000000000000E+000+0.150000000000431E-001 +0.260000000000000E-001  0.000000000000000E+000+0.100000000000282E-001 +0.260000000000000E-001  0.000000000000000E+000+0.500000000001274E-002 +0.260000000000000E-001  0.000000000000000E+000 0.000000000000000E+000 +0.216666666666761E-001  0.000000000000000E+000 0.000000000000000E+000 +0.173333333333561E-001  0.000000000000000E+000 0.000000000000000E+000 +0.130000000000335E-001  0.000000000000000E+000 0.000000000000000E+000 +0.866666666668923E-002  0.000000000000000E+000 0.000000000000000E+000 +0.433333333334393E-002  0.000000000000000E+000+0.474770501596061E-001 +0.449457555865549E-002  0.000000000000000E+000+0.624137095822587E-001 +0.218639104185592E-001  0.000000000000000E+000+0.274710820211137E-001 +0.439781066491993E-002  0.000000000000000E+000+0.775162404499768E-001 +0.218822875726493E-001  0.000000000000000E+000+0.175000000000489E-001 +0.216698729810677E-001  0.000000000000000E+000+0.374049377742800E-001 +0.217454153049271E-001  0.000000000000000E+000+0.873299162642599E-001 +0.493503711796043E-002  0.000000000000000E+000+0.962472232502677E-001 +0.151666666666384E-001  0.000000000000000E+000+0.361092965627013E-002 +0.107352657633569E-001  0.000000000000000E+000+0.524222487305538E-001 +0.217494710322139E-001  0.000000000000000E+000+0.724471979965309E-001 +0.480286472974082E-002  0.000000000000000E+000+0.574556233588582E-001 +0.465234046326982E-002  0.000000000000000E+000+0.374775082418216E-001 +0.443588749052796E-002  0.000000000000000E+000+0.174620748440649E-001 +0.432604372433973E-002  0.000000000000000E+000+0.274069445303662E-001 +0.216995189535168E-001  0.000000000000000E+000+0.875000000000345E-001 +0.216698729810898E-001  0.000000000000000E+000+0.768509429014877E-002 +0.215379337211246E-001  0.000000000000000E+000+0.963904321494850E-001 +0.661398939465712E-002  0.000000000000000E+000+0.727642177052906E-002 +0.443011470774208E-002  0.000000000000000E+000+0.124449834836647E-001 +0.431291926454894E-002  0.000000000000000E+000+0.149241258378327E-001 +0.860791945987163E-002  0.000000000000000E+000+0.199074884808963E-001 +0.868183890874860E-002  0.000000000000000E+000+0.173445817427756E-001 +0.129363585197896E-001  0.000000000000000E+000+0.223149927841523E-001 +0.130318645013867E-001  0.000000000000000E+000+0.124626594021863E-001 +0.128806353569139E-001  0.000000000000000E+000+0.148978737522776E-001 +0.172549170089808E-001  0.000000000000000E+000+0.100477085488613E-001 +0.173020481200621E-001  0.000000000000000E+000+0.248943288561033E-001 +0.874693478464290E-002  0.000000000000000E+000+0.273027333778438E-001 +0.131023208673426E-001  0.000000000000000E+000+0.298881968642471E-001 +0.882634524946797E-002  0.000000000000000E+000+0.322939746294813E-001 +0.132008562712349E-001  0.000000000000000E+000+0.348859478408316E-001 +0.889254633445792E-002  0.000000000000000E+000+0.372904969874290E-001 +0.132949678594278E-001  0.000000000000000E+000+0.398845499064174E-001 +0.897728704381017E-002  0.000000000000000E+000+0.422917602893396E-001 +0.133530215891990E-001  0.000000000000000E+000+0.448841050044180E-001 +0.904101635819934E-002  0.000000000000000E+000+0.472915329690292E-001 +0.134187777030845E-001  0.000000000000000E+000+0.448528380708523E-001 +0.175735435605107E-001  0.000000000000000E+000+0.498836917835918E-001 +0.911991320375936E-002  0.000000000000000E+000+0.522874069975051E-001 +0.135507216540452E-001  0.000000000000000E+000+0.548790812949033E-001 +0.921149949688830E-002  0.000000000000000E+000+0.572863231540567E-001 +0.136388959671376E-001  0.000000000000000E+000+0.598790589316415E-001 +0.918407375678816E-002  0.000000000000000E+000+0.623590312841999E-001 +0.136161871876397E-001  0.000000000000000E+000+0.648882846946340E-001 +0.929768835114423E-002  0.000000000000000E+000+0.673708037938968E-001 +0.137654412938815E-001  0.000000000000000E+000+0.698815075929149E-001 +0.944835648181582E-002  0.000000000000000E+000+0.723006618538128E-001 +0.138184730749027E-001  0.000000000000000E+000+0.699048578930071E-001 +0.178446291117357E-001  0.000000000000000E+000+0.748765735527623E-001 +0.937460219893974E-002  0.000000000000000E+000+0.773169545123332E-001 +0.138727132318244E-001  0.000000000000000E+000+0.798463307594286E-001 +0.960013646147148E-002  0.000000000000000E+000+0.823528893119287E-001 +0.139299421283865E-001  0.000000000000000E+000+0.847816044956594E-001 +0.970343309172691E-002  0.000000000000000E+000+0.872193013720580E-001 +0.140356141943716E-001  0.000000000000000E+000+0.894050078821107E-001 +0.926570675087459E-002  0.000000000000000E+000+0.824082332243445E-001 +0.499899823812024E-002  0.000000000000000E+000+0.674500068614159E-001 +0.480706579594959E-002  0.000000000000000E+000+0.102343281449715E-001 +0.864992134013922E-002  0.000000000000000E+000+0.125217794319013E-001 +0.216274619718725E-001  0.000000000000000E+000+0.530727028577484E-002 +0.174243678533301E-001  0.000000000000000E+000+0.927072212021592E-001 +0.216524795078309E-001  0.000000000000000E+000+0.825446721529249E-001 +0.217623324626207E-001  0.000000000000000E+000+0.248287209997012E-001 +0.173700977842713E-001  0.000000000000000E+000+0.774559974953847E-001 +0.467369623047021E-002  0.000000000000000E+000+0.524492410994514E-001 +0.457972145376216E-002  0.000000000000000E+000+0.424538688853401E-001 +0.449146107519883E-002  0.000000000000000E+000+0.624631306950981E-001 +0.456708086287553E-002  0.000000000000000E+000+0.324537891613090E-001 +0.442543162322896E-002  0.000000000000000E+000+0.224558290336793E-001 +0.435877134710853E-002  0.000000000000000E+000+0.323740723540678E-001 +0.216972078724282E-001  0.000000000000000E+000+0.573773859284986E-001 +0.217991888252024E-001  0.000000000000000E+000+0.198976948798363E-001 +0.173400626964691E-001  0.000000000000000E+000+0.962582298363988E-001 +0.110362954798282E-001  0.000000000000000E+000+0.224563524297887E-001 +0.217077368256298E-001  0.000000000000000E+000+0.921069635138181E-001 +0.135809272238655E-001  0.000000000000000E+000+0.923858042830145E-001 +0.440245293971425E-002  0.000000000000000E+000+0.474148725805479E-001 +0.218043592700527E-001  0.000000000000000E+000+0.297698604248976E-001 +0.173792298551515E-001  0.000000000000000E+000+0.734871392924924E-002 +0.128570511094810E-001  0.000000000000000E+000+0.363766117527133E-002 +0.655253480415738E-002  0.000000000000000E+000+0.347814593749260E-001 +0.174396077677385E-001  0.000000000000000E+000+0.964468684680814E-001 +0.193951920109048E-001  0.000000000000000E+000+0.398535820828240E-001 +0.175636784640132E-001  0.000000000000000E+000+0.424210384181232E-001 +0.217811660999173E-001  0.000000000
[...]
      <PointData>
        <DataArray type="Float64" NumberOfComponents="1" Name="T__TempConverged" format="ascii">
           +0.263150000000000E+003 +0.263150000000000E+003 +0.263150000000000E+003 +0.263150000000000E+003 +0.263150000000000E+003 +0.263150000000000E+003 +0.263150000000000E+003 +0.263150000000000E+003 +0.263150000000000E+003 +0.263150000000000E+003 +0.263150000000000E+003 +0.263150000000000E+003 +0.263150000000000E+003 +0.263150000000000E+003 +0.263150000000000E+003 +0.263150000000000E+003 +0.263150000000000E+003 +0.263150000000000E+003 +0.263150000000000E+003 +0.263150000000000E+003 +0.263150000000000E+003 +0.263150000000000E+003 +0.263150000000000E+003 +0.272441976077353E+003 +0.284843341685339E+003 +0.289210034679614E+003 +0.284936214310868E+003 +0.272444827503880E+003 +0.263150000000000E+003 +0.263150000000000E+003 +0.263150000000000E+003 +0.263150000000000E+003 +0.263150000000000E+003 +0.263150000000000E+003 +0.263150000000000E+003 +0.263150000000000E+003 +0.263150000000000E+003 +0.263150000000000E+003 +0.263150000000000E+003 +0.263150000000000E+003 +0.263150000000000E+003 +0.263150000000000E+003 +0.263150000000000E+003 +0.263150000000000E+003 +0.263150000000000E+003 +0.263150000000000E+003 +0.263150000000000E+003 +0.275396302270671E+003 +0.285230425523643E+003 +0.288954412702907E+003 +0.284753200564032E+003 +0.272422392125714E+003 +0.275790186737665E+003 +0.274965331418137E+003 +0.275586819635846E+003 +0.274915386670762E+003 +0.275424882681106E+003 +0.275252802408594E+003 +0.276940823256453E+003 +0.288154499510307E+003 +0.287794565782128E+003 +0.275259355909617E+003 +0.276509439578025E+003 +0.276185280541517E+003 +0.275663757731148E+003 +0.275410487899971E+003 +0.275358055396686E+003 +0.275551976833845E+003 +0.275652676278788E+003 +0.279988698454781E+003 +0.275135086812256E+003 +0.275468072291591E+003 +0.285254825322439E+003 +0.285315253228830E+003 +0.289010755602330E+003 +0.288991736321438E+003 +0.289002770282089E+003 +0.285393503548421E+003 +0.285291509982560E+003 +0.285400196973501E+003 +0.288981774179636E+003 +0.285509688091325E+003 +0.288975690203114E+003 +0.285603674824971E+003 +0.288968440873006E+003 +0.285718459872908E+003 +0.288950226961544E+003 +0.285797146215363E+003 +0.288923653121787E+003 +0.284920613808321E+003 +0.285888185173048E+003 +0.288890006789343E+003 +0.286002179680622E+003 +0.288870495023935E+003 +0.285946542114363E+003 +0.288854246560289E+003 +0.286078162417418E+003 +0.288822278335587E+003 +0.286256786857039E+003 +0.288789191414832E+003 +0.284451524889093E+003 +0.286143453895612E+003 +0.288754011663639E+003 +0.286442116592668E+003 +0.288741464110478E+003 +0.286638945234182E+003 +0.288790486599695E+003 +0.286195783587202E+003 +0.276982172414400E+003 +0.276540780093730E+003 +0.285349556763869E+003 +0.275509184680848E+003 +0.284914811774245E+003 +0.274901820178617E+003 +0.275209303022488E+003 +0.285240381338264E+003 +0.276131300055121E+003 +0.275999356509512E+003 +0.275806618913181E+003 +0.275914132208577E+003 +0.275650975606381E+003 +0.275494485228627E+003 +0.275374169927486E+003 +0.275130891083210E+003 +0.285279396740716E+003 +0.288271716173621E+003 +0.275328999231999E+003 +0.289114801810622E+003 +0.275022402458523E+003 +0.275097550500904E+003 +0.285224171491464E+003 +0.289118279912929E+003 +0.279841885124013E+003 +0.285126365568176E+003 +0.280092447031596E+003 +0.284928256459627E+003 +0.275165825414509E+003 +0.274846413711150E+003 +0.284924826022492E+003 +0.284876475175485E+003 +0.284639645378574E+003 +0.284533439006756E+003 +0.284741282751343E+003 +0.274864353276081E+003 +0.284209687929490E+003 +0.284367513885346E+003 +0.284211966181534E+003 +0.277009745260329E+003 +0.285524085806817E+003 +0.288428280981828E+003 +0.284800562678303E+003 +0.269817637840011E+003 +0.269811687822263E+003 +0.269798131731357E+003 +0.284936243068206E+003
        </DataArray>
        <DataArray type="Float64" NumberOfComponents="1" Name="R__Res" format="ascii">
            0.000000000000000E+000  0.000000000000000E+000  0.000000000000000E+000  0.000000000000000E+000  0.000000000000000E+000  0.000000000000000E+000  0.000000000000000E+000  0.000000000000000E+000  0.000000000000000E+000  0.000000000000000E+000  0.000000000000000E+000  0.000000000000000E+000  0.000000000000000E+000  0.000000000000000E+000  0.000000000000000E+000  0.000000000000000E+000  0.000000000000000E+000  0.000000000000000E+000  0.000000000000000E+000  0.000000000000000E+000  0.000000000000000E+000  0.000000000000000E+000  0.000000000000000E+000 -0.667446510524515E-001 +0.397410959696032E-008 +0.422364704322220E-008 +0.111966481350922E-003 -0.739590492058824E-001  0.000000000000000E+000  0.000000000000000E+000  0.000000000000000E+000  0.000000000000000E+000  0.000000000000000E+000  0.000000000000000E+000  0.000000000000000E+000  0.000000000000000E+000  0.000000000000000E+000  0.000000000000000E+000  0.000000000000000E+000  0.000000000000000E+000  0.000000000000000E+000  0.000000000000000E+000  0.000000000000000E+000  0.000000000000000E+000  0.000000000000000E+000  0.000000000000000E+000  0.000000000000000E+000 -0.275673748006238E-001 +0.399910726756048E-008 +0.342644357331778E-008 +0.136786347931239E-003 -0.764649419714962E-001 -0.149215050606328E+000 -0.204432281543605E+000 -0.152129626960635E+000 -0.198177489010224E+000 -0.153883623261558E+000 -0.156596459520902E+000 -0.143589790978482E+000 +0.707884650896773E-008 +0.704021418940215E-008 -0.165990499764688E+000 -0.140578096707761E+000 -0.145345877170838E+000 -0.150936799772346E+000 -0.153027091947411E+000 -0.154540947710132E+000 -0.174716573787295E+000 -0.141552049527730E+000 -0.181630134418826E-001 -0.113062980543503E+000 -0.163442230500154E+000 +0.499005059495516E-009 +0.981682535261541E-008 +0.111903211141851E-007 +0.909677955185373E-008 +0.118771026902387E-007 +0.687538159738210E-008 +0.114238587478610E-007 +0.287390466979787E-008 +0.823517620762715E-008 +0.818295631255239E-008 +0.641323882888400E-008 +0.846662473463766E-008 +0.158352411183671E-007 +0.474614680889829E-008 +0.917468884198414E-008 +0.860695403837042E-008 +0.126808357703290E-007 +0.192573611501601E-007 +0.109255082758608E-007 +0.104928751243349E-007 +0.124054688743769E-007 +0.225875713688595E-007 +0.832648949788961E-008 +0.747638345677260E-008 +0.876427219687059E-008 +0.119530757514141E-007 +0.128989319225781E-007 +0.878284212024738E-008 +0.859038173928184E-008 +0.688268331217046E-008 +0.148666993160518E-007 +0.727111826304139E-008 +0.294931763455963E-007 +0.189985505105739E-008 +0.770938224370354E-008 +0.825315216168576E-008 -0.132493058371042E+000 -0.140426200617017E+000 +0.164902047572468E-008 -0.152160969350369E+000 +0.350445317209847E-008 -0.121955541791269E+000 -0.166040345189920E+000 +0.100966839333694E-007 -0.142878288872394E+000 -0.146728420117325E+000 -0.149705346562585E+000 -0.146395591359964E+000 -0.151468779852473E+000 -0.153378744291642E+000 -0.155051183882072E+000 -0.177581762999829E+000 +0.911698583294651E-008 -0.662409571638989E-008 -0.154646718001208E+000 +0.124412258273310E-007 -0.112042850897659E+000 -0.176786500057419E+000 -0.300024367572149E-007 +0.121238631356491E-007 -0.166479643412811E-001 -0.109035482864783E-007 -0.169421822921296E-001 -0.147422338780956E-007 -0.166524449050522E+000 -0.212098065294151E+000 -0.213406021742912E-007 -0.506538970768133E-007 -0.380257048071542E-008 -0.908459751869373E-009 -0.150121608477605E-007 -0.208975726217866E+000 -0.264329131915986E-007 +0.275255671589036E-007 +0.241112472210148E-007 -0.117106792524571E+000 -0.259524407519862E-008 -0.253416537754347E-008 -0.213485591427087E-007 +0.444271659186732E-001 +0.616300300546992E-001 +0.635408210305264E-001 +0.276789660635934E-007
        </DataArray>
      </PointData>
    </Piece>
  </UnstructuredGrid>
</VTKFile>
