<?xml version="1.0"?>
<VTKFile type="UnstructuredGrid" version="1.0" byte_order="LittleEndian">
  <UnstructuredGrid>
    <Piece NumberOfPoints="+155" NumberOfCells="+256">
      <Points>
        <DataArray type="Float64" NumberOfComponents="3" Name="Points" format="ascii">
           0.000000000000000E+000  0.000000000000000E+000  0.000000000000000E+000+0.100000000000000E+000  0.000000000000000E+000  0.000000000000000E+000+0.100000000000000E+000 +0.260000000000000E-001  0.000000000000000E+000 0.000000000000000E+000 +0.260000000000000E-001  0.000000000000000E+000+0.499999999999030E-002  0.000000000000000E+000  0.000000000000000E+000+0.999999999998248E-002  0.000000000000000E+000  0.000000000000000E+000+0.149999999999717E-001  0.000000000000000E+000  0.000000000000000E+000+0.199999999999560E-001  0.000000000000000E+000  0.000000000000000E+000+0.249999999999416E-001  0.000000000000000E+000  0.000000000000000E+000+0.299999999999273E-001  0.000000000000000E+000  0.000000000000000E+000+0.349999999999129E-001  0.000000000000000E+000  0.000000000000000E+000+0.399999999998958E-001  0.000000000000000E+000  0.000000000000000E+000+0.449999999998815E-001  0.000000000000000E+000  0.000000000000000E+000+0.499999999998685E-001  0.000000000000000E+000  0.000000000000000E+000+0.549999999998802E-001  0.000000000000000E+000  0.000000000000000E+000+0.599999999998943E-001  0.000000000000000E+000  0.000000000000000E+000+0.649999999999086E-001  0.000000000000000E+000  0.000000000000000E+000+0.699999999999197E-001  0.000000000000000E+000  0.000000000000000E+000+0.749999999999336E-001  0.000000000000000E+000  0.000000000000000E+000+0.799999999999474E-001  0.000000000000000E+000  0.000000000000000E+000+0.849999999999585E-001  0.000000000000000E+000  0.000000000000000E+000+0.899999999999729E-001  0.000000000000000E+000  0.000000000000000E+000+0.949999999999878E-001  0.000000000000000E+000  0.000000000000000E+000+0.100000000000000E+000 +0.433333333332438E-002  0.000000000000000E+000+0.100000000000000E+000 +0.866666666664460E-002  0.000000000000000E+000+0.100000000000000E+000 +0.129999999999662E-001  0.000000000000000E+000+0.100000000000000E+000 +0.173333333333106E-001  0.000000000000000E+000+0.100000000000000E+000 +0.216666666666560E-001  0.000000000000000E+000+0.950000000000138E-001 +0.260000000000000E-001  0.000000000000000E+000+0.900000000000276E-001 +0.260000000000000E-001  0.000000000000000E+000+0.850000000000415E-001 +0.260000000000000E-001  0.000000000000000E+000+0.800000000000553E-001 +0.260000000000000E-001  0.000000000000000E+000+0.750000000000691E-001 +0.260000000000000E-001  0.000000000000000E+000+0.700000000000829E-001 +0.260000000000000E-001  0.000000000000000E+000+0.650000000000968E-001 +0.260000000000000E-001  0.000000000000000E+000+0.600000000001106E-001 +0.260000000000000E-001  0.000000000000000E+000+0.550000000001244E-001 +0.260000000000000E-001  0.000000000000000E+000+0.500000000001369E-001 +0.260000000000000E-001  0.000000000000000E+000+0.450000000001247E-001 +0.260000000000000E-001  0.000000000000000E+000+0.400000000001100E-001 +0.260000000000000E-001  0.000000000000000E+000+0.350000000000951E-001 +0.260000000000000E-001  0.000000000000000E+000+0.300000000000835E-001 +0.260000000000000E-001  0.000000000000000E+000+0.250000000000691E-001 +0.260000000000000E-001  0.000000000000000E+000+0.200000000000548E-001 +0.260000000000000E-001  0.000000000000000E+000+0.150000000000431E-001 +0.260000000000000E-001  0.000000000000000E+000+0.100000000000282E-001 +0.260000000000000E-001  0.000000000000000E+000+0.500000000001274E-002 +0.260000000000000E-001  0.000000000000000E+000 0.000000000000000E+000 +0.216666666666761E-001  0.000000000000000E+000 0.000000000000000E+000 +0.173333333333561E-001  0.000000000000000E+000 0.000000000000000E+000 +0.130000000000335E-001  0.000000000000000E+000 0.000000000000000E+000 +0.866666666668923E-002  0.000000000000000E+000 0.000000000000000E+000 +0.433333333334393E-002  0.000000000000000E+000+0.474770501596061E-001 +0.449457555865549E-002  0.000000000000000E+000+0.624137095822587E-001 +0.218639104185592E-001  0.000000000000000E+000+0.274710820211137E-001 +0.439781066491993E-002  0.000000000000000E+000+0.775162404499768E-001 +0.218822875726493E-001  0.000000000000000E+000+0.175000000000489E-001 +0.216698729810677E-001  0.000000000000000E+000+0.374049377742800E-001 +0.217454153049271E-001  0.000000000000000E+000+0.873299162642599E-001 +0.493503711796043E-002  0.000000000000000E+000+0.962472232502677E-001 +0.151666666666384E-001  0.000000000000000E+000+0.361092965627013E-002 +0.107352657633569E-001  0.000000000000000E+000+0.524222487305538E-001 +0.217494710322139E-001  0.000000000000000E+000+0.724471979965309E-001 +0.480286472974082E-002  0.000000000000000E+000+0.574556233588582E-001 +0.465234046326982E-002  0.000000000000000E+000+0.374775082418216E-001 +0.443588749052796E-002  0.000000000000000E+000+0.174620748440649E-001 +0.432604372433973E-002  0.000000000000000E+000+0.274069445303662E-001 +0.216995189535168E-001  0.000000000000000E+000+0.875000000000345E-001 +0.216698729810898E-001  0.000000000000000E+000+0.768509429014877E-002 +0.215379337211246E-001  0.000000000000000E+000+0.963904321494850E-001 +0.661398939465712E-002  0.000000000000000E+000+0.727642177052906E-002 +0.443011470774208E-002  0.000000000000000E+000+0.124449834836647E-001 +0.431291926454894E-002  0.000000000000000E+000+0.149241258378327E-001 +0.860791945987163E-002  0.000000000000000E+000+0.199074884808963E-001 +0.868183890874860E-002  0.000000000000000E+000+0.173445817427756E-001 +0.129363585197896E-001  0.000000000000000E+000+0.223149927841523E-001 +0.130318645013867E-001  0.000000000000000E+000+0.124626594021863E-001 +0.128806353569139E-001  0.000000000000000E+000+0.148978737522776E-001 +0.172549170089808E-001  0.000000000000000E+000+0.100477085488613E-001 +0.173020481200621E-001  0.000000000000000E+000+0.248943288561033E-001 +0.874693478464290E-002  0.000000000000000E+000+0.273027333778438E-001 +0.131023208673426E-001  0.000000000000000E+000+0.298881968642471E-001 +0.882634524946797E-002  0.000000000000000E+000+0.322939746294813E-001 +0.132008562712349E-001  0.000000000000000E+000+0.348859478408316E-001 +0.889254633445792E-002  0.000000000000000E+000+0.372904969874290E-001 +0.132949678594278E-001  0.000000000000000E+000+0.398845499064174E-001 +0.897728704381017E-002  0.000000000000000E+000+0.422917602893396E-001 +0.133530215891990E-001  0.000000000000000E+000+0.448841050044180E-001 +0.904101635819934E-002  0.000000000000000E+000+0.472915329690292E-001 +0.134187777030845E-001  0.000000000000000E+000+0.448528380708523E-001 +0.175735435605107E-001  0.000000000000000E+000+0.498836917835918E-001 +0.911991320375936E-002  0.000000000000000E+000+0.522874069975051E-001 +0.135507216540452E-001  0.000000000000000E+000+0.548790812949033E-001 +0.921149949688830E-002  0.000000000000000E+000+0.572863231540567E-001 +0.136388959671376E-001  0.000000000000000E+000+0.598790589316415E-001 +0.918407375678816E-002  0.000000000000000E+000+0.623590312841999E-001 +0.136161871876397E-001  0.000000000000000E+000+0.648882846946340E-001 +0.929768835114423E-002  0.000000000000000E+000+0.673708037938968E-001 +0.137654412938815E-001  0.000000000000000E+000+0.698815075929149E-001 +0.944835648181582E-002  0.000000000000000E+000+0.723006618538128E-001 +0.138184730749027E-001  0.000000000000000E+000+0.699048578930071E-001 +0.178446291117357E-001  0.000000000000000E+000+0.748765735527623E-001 +0.937460219893974E-002  0.000000000000000E+000+0.773169545123332E-001 +0.138727132318244E-001  0.000000000000000E+000+0.798463307594286E-001 +0.960013646147148E-002  0.000000000000000E+000+0.823528893119287E-001 +0.139299421283865E-001  0.000000000000000E+000+0.847816044956594E-001 +0.970343309172691E-002  0.000000000000000E+000+0.872193013720580E-001 +0.140356141943716E-001  0.000000000000000E+000+0.894050078821107E-001 +0.926570675087459E-002  0.000000000000000E+000+0.824082332243445E-001 +0.499899823812024E-002  0.000000000000000E+000+0.674500068614159E-001 +0.480706579594959E-002  0.000000000000000E+000+0.102343281449715E-001 +0.864992134013922E-002  0.000000000000000E+000+0.125217794319013E-001 +0.216274619718725E-001  0.000000000000000E+000+0.530727028577484E-002 +0.174243678533301E-001  0.000000000000000E+000+0.927072212021592E-001 +0.216524795078309E-001  0.000000000000000E+000+0.825446721529249E-001 +0.217623324626207E-001  0.000000000000000E+000+0.248287209997012E-001 +0.173700977842713E-001  0.000000000000000E+000+0.774559974953847E-001 +0.467369623047021E-002  0.000000000000000E+000+0.524492410994514E-001 +0.457972145376216E-002  0.000000000000000E+000+0.424538688853401E-001 +0.449146107519883E-002  0.000000000000000E+000+0.624631306950981E-001 +0.456708086287553E-002  0.000000000000000E+000+0.324537891613090E-001 +0.442543162322896E-002  0.000000000000000E+000+0.224558290336793E-001 +0.435877134710853E-002  0.000000000000000E+000+0.323740723540678E-001 +0.216972078724282E-001  0.000000000000000E+000+0.573773859284986E-001 +0.217991888252024E-001  0.000000000000000E+000+0.198976948798363E-001 +0.173400626964691E-001  0.000000000000000E+000+0.962582298363988E-001 +0.110362954798282E-001  0.000000000000000E+000+0.224563524297887E-001 +0.217077368256298E-001  0.000000000000000E+000+0.921069635138181E-001 +0.135809272238655E-001  0.000000000000000E+000+0.923858042830145E-001 +0.440245293971425E-002  0.000000000000000E+000+0.474148725805479E-001 +0.218043592700527E-001  0.000000000000000E+000+0.297698604248976E-001 +0.173792298551515E-001  0.000000000000000E+000+0.734871392924924E-002 +0.128570511094810E-001  0.000000000000000E+000+0.363766117527133E-002 +0.655253480415738E-002  0.000000000000000E+000+0.347814593749260E-001 +0.174396077677385E-001  0.000000000000000E+000+0.964468684680814E-001 +0.193951920109048E-001  0.000000000000000E+000+0.398535820828240E-001 +0.175636784640132E-001  0.000000000000000E+000+0.424210384181232E-001 +0.217811660999173E-001  0.000000000
[...]
      <PointData>
        <DataArray type="Float64" NumberOfComponents="1" Name="T__TempConverged" format="ascii">
           +0.263150000000000E+003 +0.263150000000000E+003 +0.263150000000000E+003 +0.263150000000000E+003 +0.263150000000000E+003 +0.263150000000000E+003 +0.263150000000000E+003 +0.263150000000000E+003 +0.263150000000000E+003 +0.263150000000000E+003 +0.263150000000000E+003 +0.263150000000000E+003 +0.263150000000000E+003 +0.263150000000000E+003 +0.263150000000000E+003 +0.263150000000000E+003 +0.263150000000000E+003 +0.263150000000000E+003 +0.263150000000000E+003 +0.263150000000000E+003 +0.263150000000000E+003 +0.263150000000000E+003 +0.263150000000000E+003 +0.271145298379176E+003 +0.282269501951473E+003 +0.286366561216149E+003 +0.282357782424241E+003 +0.271542992765261E+003 +0.263150000000000E+003 +0.263150000000000E+003 +0.263150000000000E+003 +0.263150000000000E+003 +0.263150000000000E+003 +0.263150000000000E+003 +0.263150000000000E+003 +0.263150000000000E+003 +0.263150000000000E+003 +0.263150000000000E+003 +0.263150000000000E+003 +0.263150000000000E+003 +0.263150000000000E+003 +0.263150000000000E+003 +0.263150000000000E+003 +0.263150000000000E+003 +0.263150000000000E+003 +0.263150000000000E+003 +0.263150000000000E+003 +0.274727399236829E+003 +0.283258199893608E+003 +0.286339338623502E+003 +0.282212480676842E+003 +0.271524555947725E+003 +0.274920297279555E+003 +0.274086841396843E+003 +0.274719142257362E+003 +0.274037952807923E+003 +0.274555543403840E+003 +0.274382901041576E+003 +0.275993671784763E+003 +0.285378741836852E+003 +0.285103516823035E+003 +0.274381992359633E+003 +0.275604713899178E+003 +0.275296997805426E+003 +0.274796535198882E+003 +0.274550210917571E+003 +0.274487613777228E+003 +0.274653096478838E+003 +0.274769447047206E+003 +0.277675896496648E+003 +0.274231026076575E+003 +0.274578888269313E+003 +0.283209851264197E+003 +0.283277818030395E+003 +0.286549138809060E+003 +0.286528490611377E+003 +0.286530681106877E+003 +0.283349596818889E+003 +0.283267129443698E+003 +0.283352317435810E+003 +0.286518723495566E+003 +0.283451088921019E+003 +0.286513501116184E+003 +0.283535188094051E+003 +0.286506186094874E+003 +0.283638020054451E+003 +0.286488794606592E+003 +0.283708769212020E+003 +0.286464783076207E+003 +0.282911638859948E+003 +0.283791725087976E+003 +0.286435274387514E+003 +0.283896763985091E+003 +0.286416482072443E+003 +0.283847324132041E+003 +0.286399733713069E+003 +0.283968075002787E+003 +0.286369897453576E+003 +0.284131994284597E+003 +0.286339620741428E+003 +0.282476570695867E+003 +0.284029582542538E+003 +0.286313415246504E+003 +0.284306232978025E+003 +0.286317749960531E+003 +0.284483326355680E+003 +0.286344106200201E+003 +0.283993824222097E+003 +0.276060759178277E+003 +0.275634348328379E+003 +0.283195737049131E+003 +0.274641385667126E+003 +0.282951128873588E+003 +0.274009786911707E+003 +0.274343371930551E+003 +0.283203818492071E+003 +0.275243501653013E+003 +0.275119586988617E+003 +0.274934082444043E+003 +0.275039284719754E+003 +0.274782365136952E+003 +0.274625980971597E+003 +0.274503467959584E+003 +0.274255291227509E+003 +0.283241291476890E+003 +0.285496257708158E+003 +0.274459865807680E+003 +0.286488363070165E+003 +0.274135310449272E+003 +0.274225956447541E+003 +0.283189861250147E+003 +0.286557193508727E+003 +0.277556195788609E+003 +0.283101676694321E+003 +0.277780408616461E+003 +0.282921979010121E+003 +0.274291262320338E+003 +0.273965658719847E+003 +0.282915724879645E+003 +0.282872350440798E+003 +0.282655498708850E+003 +0.282553455647833E+003 +0.282668506017369E+003 +0.273982674687693E+003 +0.282285987976403E+003 +0.282404400729380E+003 +0.282281834319881E+003 +0.276049295598421E+003 +0.283128907862240E+003 +0.285957201413652E+003 +0.282452815944752E+003 +0.269387202646779E+003 +0.269384523068292E+003 +0.269371083290493E+003 +0.282566112380628E+003
        </DataArray>
        <DataArray type="Float64" NumberOfComponents="1" Name="R__Res" format="ascii">
            0.000000000000000E+000  0.000000000000000E+000  0.000000000000000E+000  0.000000000000000E+000  0.000000000000000E+000  0.000000000000000E+000  0.000000000000000E+000  0.000000000000000E+000  0.000000000000000E+000  0.000000000000000E+000  0.000000000000000E+000  0.000000000000000E+000  0.000000000000000E+000  0.000000000000000E+000  0.000000000000000E+000  0.000000000000000E+000  0.000000000000000E+000  0.000000000000000E+000  0.000000000000000E+000  0.000000000000000E+000  0.000000000000000E+000  0.000000000000000E+000  0.000000000000000E+000 +0.402360420235884E-001 +0.853304702743463E-002 -0.265070743132867E-010 +0.217253059343081E-002 -0.780210840246749E-001  0.000000000000000E+000  0.000000000000000E+000  0.000000000000000E+000  0.000000000000000E+000  0.000000000000000E+000  0.000000000000000E+000  0.000000000000000E+000  0.000000000000000E+000  0.000000000000000E+000  0.000000000000000E+000  0.000000000000000E+000  0.000000000000000E+000  0.000000000000000E+000  0.000000000000000E+000  0.000000000000000E+000  0.000000000000000E+000  0.000000000000000E+000  0.000000000000000E+000  0.000000000000000E+000 -0.380360563459949E-001 -0.246034304041132E-010 -0.213380146885100E-010 +0.236674591245040E-002 -0.759327758833099E-001 -0.168315018538481E+000 -0.207309781206516E+000 -0.180139855646923E+000 -0.209713018327886E+000 -0.186252092290239E+000 -0.195083021401172E+000 -0.143482528692056E+000 -0.395948829279291E-010 -0.432895941315792E-010 -0.197179533854805E+000 -0.127293177298460E+000 -0.138074222785569E+000 -0.174968542649834E+000 -0.185872408132303E+000 -0.188964767809095E+000 -0.204230581962906E+000 -0.152964212072967E+000 -0.223146232378868E-002 -0.122220616836775E+000 -0.201805380880659E+000 -0.991211557277438E-010 -0.365645291822148E-010 -0.520078979882044E-010 -0.629226670767480E-010 -0.501050312351481E-010 -0.518296516816008E-010 +0.523521226369894E-010 -0.642756958768587E-010 +0.393002297371936E-011 -0.509399189496662E-010 -0.648784914680789E-010 -0.514605025259129E-010 -0.560931301407663E-010 -0.499815744348098E-010 -0.480298023575187E-010 -0.621671603084906E-010 -0.609333139500734E-010 -0.623110452124820E-010 -0.582445203178850E-010 -0.560880231148531E-010 -0.381710218988474E-010 -0.481567008492334E-010 -0.520010701166029E-010 -0.621906415254614E-010 -0.532864863345139E-010 -0.573737723996715E-010 -0.608095795939789E-010 -0.644621023226932E-010 -0.582044412666960E-010 -0.458104665312931E-010 -0.681958933768101E-010 -0.321676019154893E-010 -0.693259893935760E-010 -0.375972586397211E-010 -0.573636693701474E-010 -0.508184605507722E-010 -0.122234009605658E+000 -0.127297889127680E+000 -0.441744418822054E-010 -0.180640429398046E+000 -0.564432944827331E-010 -0.120756268228544E+000 -0.195349314453875E+000 +0.507616171319114E-011 -0.127792945770588E+000 -0.148145047515388E+000 -0.171756462648571E+000 -0.138483325071833E+000 -0.177593688254419E+000 -0.183780544573279E+000 -0.190865300738593E+000 -0.200490258624514E+000 -0.201039185299123E-011 +0.485134155070455E-010 -0.188521441414123E+000 +0.809410871660532E-010 -0.998610428738953E-001 -0.199000451100661E+000 +0.568782798637812E-010 -0.785406184533599E-010 -0.253727207679288E-002 +0.530258059683320E-010 -0.307680288885437E-002 -0.669886368598327E-010 -0.198352189818578E+000 -0.213000626284889E+000 -0.292632584830699E-011 +0.262616595136933E-010 +0.505533392924917E-010 +0.998051641332154E-010 -0.127687860285164E-010 -0.209851911201200E+000 -0.407571754124092E-010 -0.489981388795968E-010 -0.217195150753469E-010 -0.115447850253678E+000 +0.214043227586558E-010 +0.388651333338430E-010 -0.111555209514336E-011 +0.679768872958988E-001 +0.865177283450844E-001 +0.887439318770649E-001 -0.230110375198933E-010
        </DataArray>
      </PointData>
    </Piece>
  </UnstructuredGrid>
</VTKFile>
