<?xml version="1.0"?>
<VTKFile type="UnstructuredGrid" version="1.0" byte_order="LittleEndian">
  <UnstructuredGrid>
    <Piece NumberOfPoints="+155" NumberOfCells="+256">
      <Points>
        <DataArray type="Float64" NumberOfComponents="3" Name="Points" format="ascii">
           0.000000000000000E+000  0.000000000000000E+000  0.000000000000000E+000+0.100000000000000E+000  0.000000000000000E+000  0.000000000000000E+000+0.100000000000000E+000 +0.260000000000000E-001  0.000000000000000E+000 0.000000000000000E+000 +0.260000000000000E-001  0.000000000000000E+000+0.499999999999030E-002  0.000000000000000E+000  0.000000000000000E+000+0.999999999998248E-002  0.000000000000000E+000  0.000000000000000E+000+0.149999999999717E-001  0.000000000000000E+000  0.000000000000000E+000+0.199999999999560E-001  0.000000000000000E+000  0.000000000000000E+000+0.249999999999416E-001  0.000000000000000E+000  0.000000000000000E+000+0.299999999999273E-001  0.000000000000000E+000  0.000000000000000E+000+0.349999999999129E-001  0.000000000000000E+000  0.000000000000000E+000+0.399999999998958E-001  0.000000000000000E+000  0.000000000000000E+000+0.449999999998815E-001  0.000000000000000E+000  0.000000000000000E+000+0.499999999998685E-001  0.000000000000000E+000  0.000000000000000E+000+0.549999999998802E-001  0.000000000000000E+000  0.000000000000000E+000+0.599999999998943E-001  0.000000000000000E+000  0.000000000000000E+000+0.649999999999086E-001  0.000000000000000E+000  0.000000000000000E+000+0.699999999999197E-001  0.000000000000000E+000  0.000000000000000E+000+0.749999999999336E-001  0.000000000000000E+000  0.000000000000000E+000+0.799999999999474E-001  0.000000000000000E+000  0.000000000000000E+000+0.849999999999585E-001  0.000000000000000E+000  0.000000000000000E+000+0.899999999999729E-001  0.000000000000000E+000  0.000000000000000E+000+0.949999999999878E-001  0.000000000000000E+000  0.000000000000000E+000+0.100000000000000E+000 +0.433333333332438E-002  0.000000000000000E+000+0.100000000000000E+000 +0.866666666664460E-002  0.000000000000000E+000+0.100000000000000E+000 +0.129999999999662E-001  0.000000000000000E+000+0.100000000000000E+000 +0.173333333333106E-001  0.000000000000000E+000+0.100000000000000E+000 +0.216666666666560E-001  0.000000000000000E+000+0.950000000000138E-001 +0.260000000000000E-001  0.000000000000000E+000+0.900000000000276E-001 +0.260000000000000E-001  0.000000000000000E+000+0.850000000000415E-001 +0.260000000000000E-001  0.000000000000000E+000+0.800000000000553E-001 +0.260000000000000E-001  0.000000000000000E+000+0.750000000000691E-001 +0.260000000000000E-001  0.000000000000000E+000+0.700000000000829E-001 +0.260000000000000E-001  0.000000000000000E+000+0.650000000000968E-001 +0.260000000000000E-001  0.000000000000000E+000+0.600000000001106E-001 +0.260000000000000E-001  0.000000000000000E+000+0.550000000001244E-001 +0.260000000000000E-001  0.000000000000000E+000+0.500000000001369E-001 +0.260000000000000E-001  0.000000000000000E+000+0.450000000001247E-001 +0.260000000000000E-001  0.000000000000000E+000+0.400000000001100E-001 +0.260000000000000E-001  0.000000000000000E+000+0.350000000000951E-001 +0.260000000000000E-001  0.000000000000000E+000+0.300000000000835E-001 +0.260000000000000E-001  0.000000000000000E+000+0.250000000000691E-001 +0.260000000000000E-001  0.000000000000000E+000+0.200000000000548E-001 +0.260000000000000E-001  0.000000000000000E+000+0.150000000000431E-001 +0.260000000000000E-001  0.000000000000000E+000+0.100000000000282E-001 +0.260000000000000E-001  0.000000000000000E+000+0.500000000001274E-002 +0.260000000000000E-001  0.000000000000000E+000 0.000000000000000E+000 +0.216666666666761E-001  0.000000000000000E+000 0.000000000000000E+000 +0.173333333333561E-001  0.000000000000000E+000 0.000000000000000E+000 +0.130000000000335E-001  0.000000000000000E+000 0.000000000000000E+000 +0.866666666668923E-002  0.000000000000000E+000 0.000000000000000E+000 +0.433333333334393E-002  0.000000000000000E+000+0.474770501596061E-001 +0.449457555865549E-002  0.000000000000000E+000+0.624137095822587E-001 +0.218639104185592E-001  0.000000000000000E+000+0.274710820211137E-001 +0.439781066491993E-002  0.000000000000000E+000+0.775162404499768E-001 +0.218822875726493E-001  0.000000000000000E+000+0.175000000000489E-001 +0.216698729810677E-001  0.000000000000000E+000+0.374049377742800E-001 +0.217454153049271E-001  0.000000000000000E+000+0.873299162642599E-001 +0.493503711796043E-002  0.000000000000000E+000+0.962472232502677E-001 +0.151666666666384E-001  0.000000000000000E+000+0.361092965627013E-002 +0.107352657633569E-001  0.000000000000000E+000+0.524222487305538E-001 +0.217494710322139E-001  0.000000000000000E+000+0.724471979965309E-001 +0.480286472974082E-002  0.000000000000000E+000+0.574556233588582E-001 +0.465234046326982E-002  0.000000000000000E+000+0.374775082418216E-001 +0.443588749052796E-002  0.000000000000000E+000+0.174620748440649E-001 +0.432604372433973E-002  0.000000000000000E+000+0.274069445303662E-001 +0.216995189535168E-001  0.000000000000000E+000+0.875000000000345E-001 +0.216698729810898E-001  0.000000000000000E+000+0.768509429014877E-002 +0.215379337211246E-001  0.000000000000000E+000+0.963904321494850E-001 +0.661398939465712E-002  0.000000000000000E+000+0.727642177052906E-002 +0.443011470774208E-002  0.000000000000000E+000+0.124449834836647E-001 +0.431291926454894E-002  0.000000000000000E+000+0.149241258378327E-001 +0.860791945987163E-002  0.000000000000000E+000+0.199074884808963E-001 +0.868183890874860E-002  0.000000000000000E+000+0.173445817427756E-001 +0.129363585197896E-001  0.000000000000000E+000+0.223149927841523E-001 +0.130318645013867E-001  0.000000000000000E+000+0.124626594021863E-001 +0.128806353569139E-001  0.000000000000000E+000+0.148978737522776E-001 +0.172549170089808E-001  0.000000000000000E+000+0.100477085488613E-001 +0.173020481200621E-001  0.000000000000000E+000+0.248943288561033E-001 +0.874693478464290E-002  0.000000000000000E+000+0.273027333778438E-001 +0.131023208673426E-001  0.000000000000000E+000+0.298881968642471E-001 +0.882634524946797E-002  0.000000000000000E+000+0.322939746294813E-001 +0.132008562712349E-001  0.000000000000000E+000+0.348859478408316E-001 +0.889254633445792E-002  0.000000000000000E+000+0.372904969874290E-001 +0.132949678594278E-001  0.000000000000000E+000+0.398845499064174E-001 +0.897728704381017E-002  0.000000000000000E+000+0.422917602893396E-001 +0.133530215891990E-001  0.000000000000000E+000+0.448841050044180E-001 +0.904101635819934E-002  0.000000000000000E+000+0.472915329690292E-001 +0.134187777030845E-001  0.000000000000000E+000+0.448528380708523E-001 +0.175735435605107E-001  0.000000000000000E+000+0.498836917835918E-001 +0.911991320375936E-002  0.000000000000000E+000+0.522874069975051E-001 +0.135507216540452E-001  0.000000000000000E+000+0.548790812949033E-001 +0.921149949688830E-002  0.000000000000000E+000+0.572863231540567E-001 +0.136388959671376E-001  0.000000000000000E+000+0.598790589316415E-001 +0.918407375678816E-002  0.000000000000000E+000+0.623590312841999E-001 +0.136161871876397E-001  0.000000000000000E+000+0.648882846946340E-001 +0.929768835114423E-002  0.000000000000000E+000+0.673708037938968E-001 +0.137654412938815E-001  0.000000000000000E+000+0.698815075929149E-001 +0.944835648181582E-002  0.000000000000000E+000+0.723006618538128E-001 +0.138184730749027E-001  0.000000000000000E+000+0.699048578930071E-001 +0.178446291117357E-001  0.000000000000000E+000+0.748765735527623E-001 +0.937460219893974E-002  0.000000000000000E+000+0.773169545123332E-001 +0.138727132318244E-001  0.000000000000000E+000+0.798463307594286E-001 +0.960013646147148E-002  0.000000000000000E+000+0.823528893119287E-001 +0.139299421283865E-001  0.000000000000000E+000+0.847816044956594E-001 +0.970343309172691E-002  0.000000000000000E+000+0.872193013720580E-001 +0.140356141943716E-001  0.000000000000000E+000+0.894050078821107E-001 +0.926570675087459E-002  0.000000000000000E+000+0.824082332243445E-001 +0.499899823812024E-002  0.000000000000000E+000+0.674500068614159E-001 +0.480706579594959E-002  0.000000000000000E+000+0.102343281449715E-001 +0.864992134013922E-002  0.000000000000000E+000+0.125217794319013E-001 +0.216274619718725E-001  0.000000000000000E+000+0.530727028577484E-002 +0.174243678533301E-001  0.000000000000000E+000+0.927072212021592E-001 +0.216524795078309E-001  0.000000000000000E+000+0.825446721529249E-001 +0.217623324626207E-001  0.000000000000000E+000+0.248287209997012E-001 +0.173700977842713E-001  0.000000000000000E+000+0.774559974953847E-001 +0.467369623047021E-002  0.000000000000000E+000+0.524492410994514E-001 +0.457972145376216E-002  0.000000000000000E+000+0.424538688853401E-001 +0.449146107519883E-002  0.000000000000000E+000+0.624631306950981E-001 +0.456708086287553E-002  0.000000000000000E+000+0.324537891613090E-001 +0.442543162322896E-002  0.000000000000000E+000+0.224558290336793E-001 +0.435877134710853E-002  0.000000000000000E+000+0.323740723540678E-001 +0.216972078724282E-001  0.000000000000000E+000+0.573773859284986E-001 +0.217991888252024E-001  0.000000000000000E+000+0.198976948798363E-001 +0.173400626964691E-001  0.000000000000000E+000+0.962582298363988E-001 +0.110362954798282E-001  0.000000000000000E+000+0.224563524297887E-001 +0.217077368256298E-001  0.000000000000000E+000+0.921069635138181E-001 +0.135809272238655E-001  0.000000000000000E+000+0.923858042830145E-001 +0.440245293971425E-002  0.000000000000000E+000+0.474148725805479E-001 +0.218043592700527E-001  0.000000000000000E+000+0.297698604248976E-001 +0.173792298551515E-001  0.000000000000000E+000+0.734871392924924E-002 +0.128570511094810E-001  0.000000000000000E+000+0.363766117527133E-002 +0.655253480415738E-002  0.000000000000000E+000+0.347814593749260E-001 +0.174396077677385E-001  0.000000000000000E+000+0.964468684680814E-001 +0.193951920109048E-001  0.000000000000000E+000+0.398535820828240E-001 +0.175636784640132E-001  0.000000000000000E+000+0.424210384181232E-001 +0.217811660999173E-001  0.000000000
[...]
      <PointData>
        <DataArray type="Float64" NumberOfComponents="1" Name="T__TempConverged" format="ascii">
           +0.263150000000000E+003 +0.263150000000000E+003 +0.263150000000000E+003 +0.263150000000000E+003 +0.263150000000000E+003 +0.263150000000000E+003 +0.263150000000000E+003 +0.263150000000000E+003 +0.263150000000000E+003 +0.263150000000000E+003 +0.263150000000000E+003 +0.263150000000000E+003 +0.263150000000000E+003 +0.263150000000000E+003 +0.263150000000000E+003 +0.263150000000000E+003 +0.263150000000000E+003 +0.263150000000000E+003 +0.263150000000000E+003 +0.263150000000000E+003 +0.263150000000000E+003 +0.263150000000000E+003 +0.263150000000000E+003 +0.270381641456414E+003 +0.279802465931711E+003 +0.283242460876272E+003 +0.280124315280552E+003 +0.270615789901858E+003 +0.263150000000000E+003 +0.263150000000000E+003 +0.263150000000000E+003 +0.263150000000000E+003 +0.263150000000000E+003 +0.263150000000000E+003 +0.263150000000000E+003 +0.263150000000000E+003 +0.263150000000000E+003 +0.263150000000000E+003 +0.263150000000000E+003 +0.263150000000000E+003 +0.263150000000000E+003 +0.263150000000000E+003 +0.263150000000000E+003 +0.263150000000000E+003 +0.263150000000000E+003 +0.263150000000000E+003 +0.263150000000000E+003 +0.273967091925580E+003 +0.281144078935196E+003 +0.283539754359745E+003 +0.279918025050265E+003 +0.270755633472486E+003 +0.274005456913340E+003 +0.273117432861715E+003 +0.273798926574432E+003 +0.272931898137690E+003 +0.273636143410510E+003 +0.273467772947205E+003 +0.275032135770188E+003 +0.282460389750529E+003 +0.282378160823529E+003 +0.273458493696954E+003 +0.274690158612418E+003 +0.274376496708691E+003 +0.273879371018767E+003 +0.273636164519106E+003 +0.273568645570180E+003 +0.273640642392768E+003 +0.273852906002647E+003 +0.275982663755808E+003 +0.273285903191446E+003 +0.273641685709542E+003 +0.281062498064554E+003 +0.281149615344588E+003 +0.283960789765861E+003 +0.283946897036452E+003 +0.283908865972224E+003 +0.281211683301050E+003 +0.281132359830961E+003 +0.281219390477885E+003 +0.283937920683274E+003 +0.281308490434849E+003 +0.283933277768131E+003 +0.281383701463165E+003 +0.283925711076274E+003 +0.281475450500787E+003 +0.283909113551033E+003 +0.281539676358670E+003 +0.283888026928635E+003 +0.280810766683262E+003 +0.281615996326046E+003 +0.283863259243658E+003 +0.281712605333600E+003 +0.283844788671388E+003 +0.281671349954242E+003 +0.283825523387846E+003 +0.281780402376770E+003 +0.283797481819669E+003 +0.281927944906423E+003 +0.283771268897990E+003 +0.280422205943315E+003 +0.281841184417333E+003 +0.283754519078781E+003 +0.282087182417273E+003 +0.283764888293747E+003 +0.282218315556202E+003 +0.283721177402844E+003 +0.281663417790805E+003 +0.275132810332319E+003 +0.274714327516775E+003 +0.280948264070668E+003 +0.273720306325145E+003 +0.280864271806457E+003 +0.272873426534450E+003 +0.273413584856187E+003 +0.281078419994366E+003 +0.274349241019417E+003 +0.274204736194907E+003 +0.274012242445632E+003 +0.274139688105415E+003 +0.273861692241952E+003 +0.273706393226638E+003 +0.273582931992890E+003 +0.273353691886422E+003 +0.281114773271333E+003 +0.282563213093859E+003 +0.273543283827705E+003 +0.283622748947316E+003 +0.273225213030058E+003 +0.273319347020420E+003 +0.281065886160251E+003 +0.283822986521202E+003 +0.275943760585062E+003 +0.280986621195685E+003 +0.275903630798553E+003 +0.280824698247935E+003 +0.273377799278519E+003 +0.272994421821195E+003 +0.280815490210105E+003 +0.280774667068289E+003 +0.280585813963694E+003 +0.280497007518225E+003 +0.280513513481555E+003 +0.273026424067120E+003 +0.280265773550828E+003 +0.280383694230045E+003 +0.280289405415546E+003 +0.275070196183259E+003 +0.280688339070260E+003 +0.283303010182448E+003 +0.280158024798616E+003 +0.268888448530988E+003 +0.268925139132236E+003 +0.269467338983041E+003 +0.280256209742624E+003
        </DataArray>
        <DataArray type="Float64" NumberOfComponents="1" Name="R__Res" format="ascii">
            0.000000000000000E+000  0.000000000000000E+000  0.000000000000000E+000  0.000000000000000E+000  0.000000000000000E+000  0.000000000000000E+000  0.000000000000000E+000  0.000000000000000E+000  0.000000000000000E+000  0.000000000000000E+000  0.000000000000000E+000  0.000000000000000E+000  0.000000000000000E+000  0.000000000000000E+000  0.000000000000000E+000  0.000000000000000E+000  0.000000000000000E+000  0.000000000000000E+000  0.000000000000000E+000  0.000000000000000E+000  0.000000000000000E+000  0.000000000000000E+000  0.000000000000000E+000 -0.406960863761352E-004 +0.256232650769350E-005 -0.905386876581815E-013 -0.437922709680144E-002 -0.195866730329553E+001  0.000000000000000E+000  0.000000000000000E+000  0.000000000000000E+000  0.000000000000000E+000  0.000000000000000E+000  0.000000000000000E+000  0.000000000000000E+000  0.000000000000000E+000  0.000000000000000E+000  0.000000000000000E+000  0.000000000000000E+000  0.000000000000000E+000  0.000000000000000E+000  0.000000000000000E+000  0.000000000000000E+000  0.000000000000000E+000  0.000000000000000E+000  0.000000000000000E+000  0.000000000000000E+000 -0.112592720702409E-006 +0.186073378927176E-012 +0.288213897192691E-012 -0.243912834374527E-006 -0.168052565671789E-004 -0.266962942419013E-006 -0.158944633010805E-007 -0.289710358813977E-006 -0.258908007073622E-004 -0.243830760471297E-006 -0.248915663636495E-006 -0.137605892520654E-004 -0.628578300521099E-010 +0.842659275690494E-012 -0.247246464635253E-006 -0.265240789332211E-006 -0.248012511860907E-006 -0.280199495605871E-006 -0.209064287659544E-006 -0.243059485871555E-006 -0.558927664058451E-002 -0.231872221201357E-006 -0.361847032461782E-004 -0.173993985352894E-005 -0.476316520447995E-006 +0.104061204098116E-011 +0.635491659295440E-012 +0.108374420548785E-011 -0.123789867245705E-012 +0.217270645919143E-012 -0.142108547152020E-012 +0.770716823694784E-012 -0.655919762948542E-012 +0.773603403558809E-012 +0.222266649529956E-012 +0.313471471002913E-012 -0.606847905260111E-012 +0.669353461546507E-012 -0.497157870427145E-012 +0.910382880192628E-013 -0.104360964314765E-011 -0.316413562018170E-014 +0.663247234911069E-012 -0.413891143580258E-012 -0.133704158855608E-011 +0.171129777015722E-011 +0.168098868158495E-011 +0.577315972805081E-014 +0.473232564246473E-012 -0.426325641456060E-012 -0.393018950717305E-012 -0.478950212823293E-012 +0.898170426921752E-012 +0.605405725551122E-009 -0.217725837359239E-011 -0.351269013876276E-011 +0.691946500097629E-012 +0.633160190943727E-012 -0.389110965670625E-011 +0.157474033812832E-011 -0.458300064565265E-012 +0.324343918567394E-005 -0.189101456715690E-006 +0.226652030477226E-012 -0.287987822034097E-006 +0.720978832191577E-012 -0.124287538217743E+000 +0.895420490394372E-004 -0.929256671611256E-012 -0.608195657392230E-006 -0.256013957145029E-006 -0.275006361238894E-006 -0.249296338239446E-006 -0.285860940696381E-006 -0.298670025600245E-006 -0.247502831118851E-006 -0.122352490361521E-006 -0.768052288435683E-012 -0.690669743619310E-012 -0.240232568060605E-006 +0.267459110414592E-009 -0.445754182578639E-004 -0.247528670005437E-006 +0.513256104284210E-012 +0.123956400699399E-011 +0.122058815077430E-005 +0.190891746854049E-011 +0.891135521397224E-001 +0.497868413162905E-011 -0.248093627419621E-006 -0.181118308129058E-006 -0.144639855648165E-011 -0.253281839945885E-010 +0.822752976858965E-010 -0.349879014649446E-009 -0.400883215512238E-010 +0.178885661838990E-007 +0.113144604796389E-009 +0.121369270189575E-008 +0.101929155560398E-006 -0.152381019802306E-006 -0.167515445959054E-010 +0.652200515816048E-012 +0.678557334244934E-004 -0.120523263200667E-004 +0.679547652548962E-005 +0.920758237791377E-001 -0.399624777713825E-012
        </DataArray>
      </PointData>
    </Piece>
  </UnstructuredGrid>
</VTKFile>
