<?xml version="1.0"?>
<VTKFile type="UnstructuredGrid" version="1.0" byte_order="LittleEndian">
  <UnstructuredGrid>
    <Piece NumberOfPoints="+288" NumberOfCells="+510">
      <Points>
        <DataArray type="Float64" NumberOfComponents="3" Name="Points" format="ascii">
           0.000000000000000E+000  0.000000000000000E+000  0.000000000000000E+000+0.400000000000000E+001  0.000000000000000E+000  0.000000000000000E+000+0.800000000000000E+001  0.000000000000000E+000  0.000000000000000E+000+0.120000000000000E+002  0.000000000000000E+000  0.000000000000000E+000+0.120000000000000E+002 +0.400000000000000E+001  0.000000000000000E+000+0.800000000000000E+001 +0.400000000000000E+001  0.000000000000000E+000+0.400000000000000E+001 +0.400000000000000E+001  0.000000000000000E+000 0.000000000000000E+000 +0.400000000000000E+001  0.000000000000000E+000+0.499999999999095E+000  0.000000000000000E+000  0.000000000000000E+000+0.999999999997648E+000  0.000000000000000E+000  0.000000000000000E+000+0.149999999999619E+001  0.000000000000000E+000  0.000000000000000E+000+0.199999999999478E+001  0.000000000000000E+000  0.000000000000000E+000+0.249999999999605E+001  0.000000000000000E+000  0.000000000000000E+000+0.299999999999737E+001  0.000000000000000E+000  0.000000000000000E+000+0.349999999999868E+001  0.000000000000000E+000  0.000000000000000E+000+0.450000000000000E+001  0.000000000000000E+000  0.000000000000000E+000+0.500000000000000E+001  0.000000000000000E+000  0.000000000000000E+000+0.550000000000000E+001  0.000000000000000E+000  0.000000000000000E+000+0.600000000000000E+001  0.000000000000000E+000  0.000000000000000E+000+0.650000000000000E+001  0.000000000000000E+000  0.000000000000000E+000+0.700000000000000E+001  0.000000000000000E+000  0.000000000000000E+000+0.750000000000000E+001  0.000000000000000E+000  0.000000000000000E+000+0.850000000000000E+001  0.000000000000000E+000  0.000000000000000E+000+0.900000000000000E+001  0.000000000000000E+000  0.000000000000000E+000+0.950000000000000E+001  0.000000000000000E+000  0.000000000000000E+000+0.100000000000000E+002  0.000000000000000E+000  0.000000000000000E+000+0.105000000000000E+002  0.000000000000000E+000  0.000000000000000E+000+0.110000000000000E+002  0.000000000000000E+000  0.000000000000000E+000+0.115000000000000E+002  0.000000000000000E+000  0.000000000000000E+000+0.120000000000000E+002 +0.499999999999095E+000  0.000000000000000E+000+0.120000000000000E+002 +0.999999999997648E+000  0.000000000000000E+000+0.120000000000000E+002 +0.149999999999619E+001  0.000000000000000E+000+0.120000000000000E+002 +0.199999999999478E+001  0.000000000000000E+000+0.120000000000000E+002 +0.249999999999605E+001  0.000000000000000E+000+0.120000000000000E+002 +0.299999999999737E+001  0.000000000000000E+000+0.120000000000000E+002 +0.349999999999868E+001  0.000000000000000E+000+0.115000000000000E+002 +0.400000000000000E+001  0.000000000000000E+000+0.110000000000000E+002 +0.400000000000000E+001  0.000000000000000E+000+0.105000000000000E+002 +0.400000000000000E+001  0.000000000000000E+000+0.100000000000000E+002 +0.400000000000000E+001  0.000000000000000E+000+0.950000000000000E+001 +0.400000000000000E+001  0.000000000000000E+000+0.900000000000000E+001 +0.400000000000000E+001  0.000000000000000E+000+0.850000000000000E+001 +0.400000000000000E+001  0.000000000000000E+000+0.750000000000000E+001 +0.400000000000000E+001  0.000000000000000E+000+0.700000000000000E+001 +0.400000000000000E+001  0.000000000000000E+000+0.650000000000000E+001 +0.400000000000000E+001  0.000000000000000E+000+0.600000000000000E+001 +0.400000000000000E+001  0.000000000000000E+000+0.550000000000000E+001 +0.400000000000000E+001  0.000000000000000E+000+0.500000000000000E+001 +0.400000000000000E+001  0.000000000000000E+000+0.450000000000000E+001 +0.400000000000000E+001  0.000000000000000E+000+0.349999999999800E+001 +0.400000000000000E+001  0.000000000000000E+000+0.300000000000139E+001 +0.400000000000000E+001  0.000000000000000E+000+0.250000000000485E+001 +0.400000000000000E+001  0.000000000000000E+000+0.200000000000824E+001 +0.400000000000000E+001  0.000000000000000E+000+0.150000000000624E+001 +0.400000000000000E+001  0.000000000000000E+000+0.100000000000416E+001 +0.400000000000000E+001  0.000000000000000E+000+0.500000000002081E+000 +0.400000000000000E+001  0.000000000000000E+000 0.000000000000000E+000 +0.349999999999800E+001  0.000000000000000E+000 0.000000000000000E+000 +0.300000000000139E+001  0.000000000000000E+000 0.000000000000000E+000 +0.250000000000485E+001  0.000000000000000E+000 0.000000000000000E+000 +0.200000000000824E+001  0.000000000000000E+000 0.000000000000000E+000 +0.150000000000624E+001  0.000000000000000E+000 0.000000000000000E+000 +0.100000000000416E+001  0.000000000000000E+000 0.000000000000000E+000 +0.500000000002081E+000  0.000000000000000E+000+0.328755834500519E+001 +0.208996479268149E+001  0.000000000000000E+000+0.774986896261233E+001 +0.200710118073065E+001  0.000000000000000E+000+0.531245087396154E+001 +0.198478464477560E+001  0.000000000000000E+000+0.981351920098358E+001 +0.196090657986241E+001  0.000000000000000E+000+0.169291768141036E+001 +0.239907973705961E+001  0.000000000000000E+000+0.657079507388114E+001 +0.138989594787600E+001  0.000000000000000E+000+0.661429251075574E+001 +0.270446933805559E+001  0.000000000000000E+000+0.225392902868206E+001 +0.125051831040018E+001  0.000000000000000E+000+0.423925169874935E+001 +0.283372641727718E+001  0.000000000000000E+000+0.423707814529412E+001 +0.125275055258555E+001  0.000000000000000E+000+0.875694444444444E+001 +0.276128472222222E+001  0.000000000000000E+000+0.876143077153385E+001 +0.127838935205345E+001  0.000000000000000E+000+0.107208297382133E+002 +0.125611123090137E+001  0.000000000000000E+000+0.106956835336235E+002 +0.271283299838106E+001  0.000000000000000E+000+0.103660968516459E+001 +0.129865234316689E+001  0.000000000000000E+000+0.261543574834611E+001 +0.292822378475033E+001  0.000000000000000E+000+0.563377038811470E+001 +0.297027054831665E+001  0.000000000000000E+000+0.557315676056145E+001 +0.109147748136362E+001  0.000000000000000E+000+0.746053734972748E+001 +0.102055783128407E+001  0.000000000000000E+000+0.973076083849089E+001 +0.102341082819847E+001  0.000000000000000E+000+0.975213241794329E+001 +0.289136474807064E+001  0.000000000000000E+000+0.776873670501298E+001 +0.301661889356723E+001  0.000000000000000E+000+0.324990708085417E+001 +0.117221212972438E+001  0.000000000000000E+000+0.961344282238571E+000 +0.303865571776164E+001  0.000000000000000E+000+0.338890864800998E+001 +0.322972422511408E+001  0.000000000000000E+000+0.111696753777132E+002 +0.197780560203538E+001  0.000000000000000E+000+0.771125567874094E+000 +0.204045009793099E+001  0.000000000000000E+000+0.178910343167213E+001 +0.318609248276602E+001  0.000000000000000E+000+0.237620848276504E+001 +0.207432536602940E+001  0.000000000000000E+000+0.606829296302245E+001 +0.208414130210372E+001  0.000000000000000E+000+0.406639130190542E+001 +0.203558892083601E+001  0.000000000000000E+000+0.897263791606800E+001 +0.200000000000000E+001  0.000000000000000E+000+0.490044259032974E+001 +0.324563917714888E+001  0.000000000000000E+000+0.691153345043504E+001 +0.201713248255379E+001  0.000000000000000E+000+0.822294895702170E+001 +0.736807090168043E+000  0.000000000000000E+000+0.478918279726386E+001 +0.737118178734138E+000  0.000000000000000E+000+0.166748340683065E+001 +0.740511171798939E+000  0.000000000000000E+000+0.111750694127107E+002 +0.698237222006876E+000  0.000000000000000E+000+0.111750694127105E+002 +0.330176277799357E+001  0.000000000000000E+000+0.622134130751739E+001 +0.704892175881082E+000  0.000000000000000E+000+0.700750655032757E+001 +0.323691567069787E+001  0.000000000000000E+000+0.627828746440468E+001 +0.331644657716907E+001  0.000000000000000E+000+0.650897746949175E+000 +0.677968985538170E+000  0.000000000000000E+000+0.104720770010340E+002 +0.186345752250664E+001  0.000000000000000E+000+0.167362799313483E+001 +0.165855969410274E+001  0.000000000000000E+000+0.251308924687876E+001 +0.706702084237175E+000  0.000000000000000E+000+0.103573492347053E+002 +0.659075563074651E+000  0.000000000000000E+000+0.103758014339879E+002 +0.332220130257419E+001  0.000000000000000E+000+0.393491822178185E+001 +0.698691917377901E+000  0.000000000000000E+000+0.836393179858911E+001 +0.332576922488448E+001  0.000000000000000E+000+0.907092467430864E+001 +0.696046564764687E+000  0.000000000000000E+000+0.914060217065478E+001 +0.332920831376625E+001  0.000000000000000E+000+0.810038865061033E+001 +0.142745085322638E+001  0.000000000000000E+000+0.486468922085392E+001 +0.147387179350396E+001  0.000000000000000E+000+0.691831194014111E+001 +0.625006598670414E+000  0.000000000000000E+000+0.489231524668748E+001 +0.255510342476504E+001  0.000000000000000E+000+0.823919830265675E+001 +0.220931360361905E+001  0.000000000000000E+000+0.280381186864821E+001 +0.147718578164899E+001  0.000000000000000E+000+0.101961989719127E+002 +0.254590237645612E+001  0.000000000000000E+000+0.727237722833095E+001 +0.257725855528790E+001  0.000000000000000E+000+0.433878115330702E+001 +0.340413515633448E+001  0.000000000000000E+000+0.361399421630367E+001 +0.147893202420788E+001  0.000000000000000E+000+0.364038173108516E+001 +0.248251998374757E+001  0.000000000000000E+000+0.940206366018483E+001 +0.143143781999405E+001  0.000000000000000E+000+0.927205601514874E+001 +0.248039124482812E+001  0.000000000000000E+000+0.113355025699696E+002 +0.143829418205170E+001  0.000000000000000E+000+0.113732437411269E+002 +0.259113921011365E+001  0.000000000000000E+000+0.460665647106189E+001 +0.193173249601717E+001  0.000000000000000E+000+0.573176975753903E+001 +0.161870966921854E+001  0.000000000000000E+000+0.291945887334179E+001 +0.340441092784134E+001  0.000000000000000E+000+0.233272552646408E+001 +0.342868835871050E+001  0.000000000000000E+000+0.609109552778434E+000 +0.255835558995448E+001  0.000000000000000E+000+0.621087190023254E+000 +0.150145129424458E+001  0.000000000
[...]
      <PointData>
        <DataArray type="Float64" NumberOfComponents="2" Name="y" format="ascii">
          +0.268035119482376E+001  +0.227498626385286E+001+0.328826985967830E+001  +0.987743426550056E+001+0.930084016482570E+000  +0.900108059534920E+001+0.423821965961571E+001  +0.816280007863134E+001+0.879505590263406E+001  +0.312565129422783E+001+0.780777281007491E+001  +0.742405259299721E+001+0.868327438170560E+001  +0.562724265002091E+001+0.823489457132776E+001  +0.915833360659748E+001+0.732935517365964E+001  +0.251071080826829E+001+0.272742635659216E+000  +0.265575916551280E+001+0.245654395548483E+001  +0.405046969288935E+001+0.196306347331220E+000  +0.404515559569201E+001+0.909688885866157E+001  +0.897196030672269E+001+0.668451243233866E+001  +0.812549806734131E+001+0.898132959471661E+001  +0.479385262592608E+001+0.729077233827919E+001  +0.295514597052299E+001+0.126426260034366E+001  +0.767919164538883E+001+0.894101849390946E+001  +0.742400337443320E+000+0.324028684971780E+001  +0.741501037346754E+001+0.862212284089459E+001  +0.211185299176734E+001+0.991945463950908E+001  +0.155259075215228E+001+0.968456054983277E+001  +0.618597602761368E+001+0.105210125808067E+000  +0.965483844877723E+001+0.841812658836516E+001  +0.816907594108613E+001+0.564507533789358E+001  +0.422189517240594E+001+0.765126558772812E+000  +0.792477227965130E+001+0.309412490632141E+001  +0.324795215688697E+001+0.589056344707736E+001  +0.819091760781914E+001+0.984413349625088E+001  +0.813494281866007E+001+0.481207033737697E+001  +0.287096401666498E+001+0.305010878241282E+001  +0.441538730470654E+001+0.931451968547735E+001  +0.202387915736396E+001+0.178326318309650E+001  +0.960710502094232E+001+0.489995839239854E+001  +0.194548485681698E+000+0.217375659609593E+001  +0.407077546493970E+001+0.321295724134091E+001  +0.148164110863105E+001+0.573778391696600E+001  +0.442492532302031E+001+0.841696387029267E+001  +0.636594150733992E+001+0.276907944888913E+001  +0.455839749613037E+001+0.506741342634313E+001  +0.979950836046114E+001+0.913798157095087E+001  +0.586954588214347E+001+0.242045731280148E+001  +0.472688364216700E+000+0.401157391900897E+001  +0.406544209953098E+001+0.294582391612054E+001  +0.317863552638477E+001+0.816305592672983E-002  +0.102797592403432E+001+0.892473566160163E+001  +0.845386673656770E+001+0.628305430835438E+001  +0.264592149171254E+001+0.779929345527632E+001  +0.552201896705935E+001+0.109062238429168E+001  +0.934692505761180E+001+0.746886308090369E+001  +0.225287874016843E+001+0.161566261668645E+000  +0.678789312604922E+001+0.129670332030147E+001  +0.206255028649569E+001+0.373908567412043E+001  +0.614557146654787E+001+0.830297720422390E+001  +0.300348405645901E+001+0.671388707693060E+001  +0.210207343697640E+000+0.303486776455275E+001  +0.436424743064712E-002+0.322980464093677E+001  +0.418439328520387E+001+0.482415980213047E+001  +0.902410045044480E+001+0.831748884232765E+001  +0.626514676951800E+001+0.276612523482529E+001  +0.913978016322208E+001+0.216968518212445E+001  +0.205003282732824E+001+0.287238748315773E+001  +0.472652297230889E+001+0.743007240517897E+001  +0.927273100186774E+001+0.793735638496860E+001  +0.139856148128821E+001+0.207465413253841E+001  +0.442825030812179E+001+0.449687005008373E+000  +0.969126866512654E+001+0.436309190004076E+001  +0.586886260144218E+001+0.834225760767164E+001  +0.292800734811491E+001+0.921481944268891E+001  +0.659319790335191E+001+0.976290416368543E+001  +0.656162196282867E+001+0.402374019203796E+001  +0.388023465210515E+001+0.236743564581074E+001  +0.791732237375745E+001+0.137501745084543E+000  +0.827545189112473E+001+0.479822863447678E+001  +0.749954503140251E+001+0.496336972916676E+001  +0.482868702049226E+001+0.741819406469652E+001  +0.924975876876754E+001+0.209612089672951E+001  +0.858230042968954E+001+0.785536340930916E+001  +0.189325773666958E+001+0.676321956218184E+001  +0.117763895945307E+001+0.742898377653623E+001  +0.643356859202582E+000+0.149831501155143E+001  +0.280427839903945E+000+0.673049337873581E+001  +0.303590043949463E+001+0.182046335564205E+001  +0.304973981833059E+001+0.532738558113485E+001  +0.576167955280281E+001+0.814255134362317E+001  +0.363924289349256E+001+0.550277966709855E+001  +0.459684629714579E+001+0.522409649216663E+001  +0.399624169521748E+001+0.501715094377274E+001  +0.918218447612949E+001+0.219372928625204E+000  +0.891163016838164E+001+0.411725502571101E+001  +0.536709473801964E+001+0.517362539566509E+001  +0.824205180738916E+001+0.329155583009171E+000  +0.771282925903069E+001+0.816420208670022E+001  +0.745979138484916E+001+0.915858762896774E+001  +0.906255945784024E+001+0.789945712816918E+000  +0.119064758777751E+001+0.388082719291821E+001  +0.251517576474203E+001+0.712662736566151E+001  +0.902376185054975E+001+0.676719181460563E+001  +0.329932360195223E+001+0.106590280960577E+001  +0.497769471396417E+001+0.702764797219892E+001  +0.191018813654791E+001+0.990785368471225E+001  +0.310958540933675E+000+0.758800895459097E+000  +0.953993320193177E+001+0.745587032824230E+001  +0.485212546425616E+001+0.361605420143067E+000  +0.538636829834245E+001+0.202205175583233E+001  +0.182356648936391E+001+0.103684868061194E+001  +0.664924843065827E+001+0.637982127647541E-002  +0.628726381482291E+001+0.184507982129236E+001  +0.697310119757870E+001+0.504515152230527E+001  +0.808429904920997E+001+0.402474388027606E+001  +0.212812160451728E+001+0.933220662522792E+001  +0.307899192646149E+001+0.197172788393697E+001  +0.483515729598708E+000+0.314342099218927E+001  +0.683449567170500E+001+0.522265192391169E+001  +0.577516631992712E+001+0.651113701447945E+001  +0.338179667575511E+001+0.207650598271398E+000  +0.727622101859451E+001+0.973612190739136E+001  +0.582984394282266E+001+0.775133713378655E+000  +0.700362708261372E+001+0.117739771655423E-001  +0.748256374959613E+001+0.266027094256259E+001  +0.443652020403427E+001+0.189791549902327E+001  +0.697847010414480E+001+0.246441502506883E+001  +0.844466548971589E+001+0.468425044960785E+001  +0.299334031841554E+001+0.319354533356003E+001  +0.247565919833179E+001+0.932267037007888E+001  +0.740275045972613E+001+0.200609536021513E+001  +0.104102916215345E+001+0.948599326294880E+001  +0.982164110647935E+001+0.951802632474027E+001  +0.585704884271142E+001+0.903184702421520E+001  +0.824074237496304E+001+0.465824679456194E+001  +0.524370970414297E+001+0.644057235121760E+001  +0.792149377363148E+001+0.141764385889064E+001  +0.638098001939707E+001+0.672486330572198E+001  +0.571543960628886E+001+0.941569838496983E+000  +0.650698413320323E+001+0.350449499227823E+001  +0.414588856508037E+000+0.522795967151220E+001  +0.821388448258025E+001+0.392710959595655E+001  +0.897737230419379E+001+0.325524870115030E+001  +0.539819841383177E+001+0.553031932116567E+001  +0.782174408995832E+001+0.776934722485916E+001  +0.864477080084357E+001+0.944777732322608E+001  +0.436491836803594E+001+0.644955596904554E+001  +0.991240687953317E+001+0.544714678489207E+001  +0.236769763899119E+001+0.620278752460517E+001  +0.558475613897294E+001+0.913307029743815E+001  +0.303240907696174E+001+0.601984229385644E-001  +0.327299507742148E+001+0.817662538221485E+001  +0.494560346891553E+001+0.130779593391710E+000  +0.698835649884516E+001+0.832508564403872E+001  +0.806210483840564E+000+0.938514667005396E+001  +0.473773180807014E+000+0.574033301283510E+001  +0.165347083891922E+001+0.718280281997411E+001  +0.586874338038602E+001+0.924884584348289E+001  +0.721932100381546E+001+0.216296316436341E+001  +0.929675035688598E+001+0.309246237926028E+001  +0.207860300292184E+001+0.878098304768292E+001  +0.333939977893052E+001+0.376112344162105E+001  +0.957991240878087E+001+0.142124285186743E+000  +0.180194226484031E+001+0.803893728931208E+001  +0.294236879509925E+001+0.218729425107285E+001  +0.106185238432854E+001+0.176888243761755E+001  +0.743925192667419E+001+0.449593430640281E+001  +0.882870919234846E+001+0.389072865115075E+001  +0.935706786179750E+001+0.187194960910354E+001  +0.969346319068868E+001+0.871993584963281E+001  +0.778310437959717E+001+0.125856178733075E+001  +0.991554778496983E+001+0.983253154939044E+001  +0.304525088189170E+001+0.535327934111950E+001  +0.503526013319428E+001+0.700712868750961E+001  +0.412727527399113E+001+0.998115376494020E+000  +0.490238790663261E+001+0.994639856052361E+001  +0.251882060929207E+001+0.747790606854278E+001  +0.197978242883782E+001+0.831145689983654E+001  +0.479390419569911E+001+0.721892726950871E+001  +0.816109707380424E+001+0.298716560939130E+001  +0.474015623697326E+000+0.805575311158520E+001  +0.403772297455357E+001+0.539339622643263E+000  +0.133249303024305E+001+0.386853428175047E+001  +0.400566428045749E+001+0.665684095449777E+001  +0.514706636064794E+001+0.429782854514108E+001  +0.536612212804028E+001+0.133376830113995E+001  +0.239904805114271E+001+0.810430085852237E+001  +0.826474167303038E+001+0.161688079655721E+001  +0.142765328038878E+001+0.477092059629339E+001  +0.363986455350257E+001+0.581698239608204E+001  +0.773040523161344E+000+0.168153101117567E+000  +0.795913073424072E+001+0.575706195115880E+001  +0.832035039476592E+001+0.636444760350851E+001  +0.935973493802151E+001+0.524110338303773E+001  +0.378380887142794E+001+0.170142707597777E+001  +0.785051744550932E+001+0.320784513770214E+001  +0.440702587723141E+001+0.478945298573139E+001  +0.332374628307348E+001+0.491302063428748E+001  +0.952576315680805E+001+0.971047549466403E+001  +0.232007288884842E+001+0.216758241215028E+001  +0.417780738711583E+001+0.796437500596147E+001  +0.543008612784918E+001+0.767301896631619E+000  +0.538088242022495E+001+0.759557429720456E+001  +0.469123098476615E+001+0.425562802027650E+000  +0.679783543203529E+001+0.187638194167794E+001  +0.635790347734902E+001+0.744909801913641E+001  +0.383026291087828E+001+0.958566864467072E+001  +0.384055239132966E+001+0.255714508841358E+001  +0.796368425182997E+001+0.945674014509385E+001  +0.393156767818201E+001+0.451111175178919E+001  +0.296327496990776E+001+0.868552653369895E+001  +0.692308789456353E+001+0.685236155452149E+001  +0.170907542443864E+001+0.782084437215495E+001  +0.497838519356671E+001+0.870601615725181E+000  +0.288547496971733E+001+0.776441186772454E+001  +0.192672002755316E+001+0.883319044753341E+001  +0.834865298052860E+001+0.823710030504639E+001  +0.488768934765059E+001+0.937905045867983E+000  +0.111467786133972E+001+0.931658040244929E+001  +0.962913194659181E+001+0.841259717762399E-001  +0.822678799768364E+001+0.177324273140417E+001  +0.791618496334603E+001+0.677111976608807E+001  +0.366804536722510E+000+0.305663861487130E+001  +0.402894493350503E+001+0.813028229299049E+001  +0.754802385166785E+001+0.287881862533589E+000  +0.773634896136984E+001+0.730476392000719E+001  +0.260960424421812E+001+0.726054086100143E+001  +0.836514853169304E+001+0.171452821849387E+001  +0.619623532082448E+001+0.536283708906624E+001  +0.499431634986359E+001+0.601748144221407E+001  +0.925801601136397E+001+0.596882896749776E+001  +0.253985879857117E+001+0.204023737818088E+000  +0.154640718027424E+001+0.301010977918684E+001  +0.162364935357774E+000+0.701327660403183E+001  +0.752089123248946E+001+0.633865296304103E+001  +0.973527638113746E+001+0.826868706328059E+001  +0.387598800909123E+001+0.299302958402898E+000  +0.821434429360962E+001+0.792122037089079E+000  +0.437410605339548E+000+0.356751287517326E+001  +0.386969055730210E+001+0.305687012883350E+001  +0.597477255077416E+001+0.747430537977158E+001  +0.523461198525376E+001+0.464732782902036E+000  +0.344555937343920E+001+0.915240710691326E+000  +0.637946805706638E+001+0.499640741263343E+000  +0.850137163492539E+001+0.246886169404023E+001  +0.190747184754286E+001+0.307523392905616E+001  +0.587426493483066E+001+0.915885563389701E+001  +0.532741730008144E+001+0.865326714333691E+001  +0.896124415282467E+001+0.616681903258727E+001  +0.458325309000667E+001+0.507836052061924E+001  +0.230283912713804E+001+0.533904178538032E+001  +0.346855959120023E+001+0.737023837919816E+001  +0.808430020765511E+001+0.843844585218952E+001  +0.624824573080538E+001+0.874880534276331E+001  +0.172073120465293E+000+0.391130658942220E+001  +0.299696916162128E+001+0.896044112465862E+001  +0.979484333759930E+001+0.471623714760627E+001  +0.905657620866385E+000+0.743928305604841E+001  +0.777379856789135E+001+0.217018516833634E+001  +0.266672955009947E+001+0.236713186363021E+001  +0.218330578010584E+001+0.299446127885147E+000  +0.356636853449269E+001+0.177553207840273E+001  +0.212792307480847E-001+0.311773678039127E+001  +0.704042784424818E+001+0.690251928006084E+001  +0.547340797284779E+001+0.907704856957091E+001  +0.305571194388661E+000+0.396930773935283E+001  +0.645272917236381E+001+0.698388091764433E+001  +0.961121359986425E+001+0.395505505290969E+001  +0.947585792980215E+001+0.946883976439812E+001  +0.347455181719503E+001+0.141056281664537E+001  +0.171856757124939E+000+0.248620503095608E+001  +0.511376158953461E+001+0.219970348872676E+000  +0.697845002150995E+001+0.353833897336091E+001  +0.550832424898608E+001+0.185126176508348E+001  +0.903493528242056E+001+0.482130542764953E+001  +0.902668140353481E+000+0.336021435007983E+001  +0.519727972473620E+001+0.464674004332671E+001  +0.321452585363527E+001+0.785517029684495E+001  +0.566515136798137E+001+0.565061663464723E+001  +0.237984072102079E+001+0.367493776643085E+001  +0.273204768263120E+001+0.416973953789897E+001  +0.304799775279639E+001+0.316389567946309E+001  +0.895275212588909E+001+0.480173114674236E+001  +0.822738458155148E+001+0.780794817403145E+001  +0.182599179355434E+001+0.121193125349512E+001  +0.760269055751967E+001+0.111016608894184E+001  +0.283583070955866E+001+0.290778085354930E+001  +0.441666677752272E+000+0.245688408094534E+001  +0.646169301151583E+001+0.823220172427834E+001  +0.224752028914952E+001+0.541857404185866E+000  +0.572649393329763E+000+0.583085956173700E+001  +0.292639368359614E+001+0.710680611814532E+001  +0.185003144040930E+001+0.680386004749374E+001  +0.748691168629922E+001
        </DataArray>
      </PointData>
    </Piece>
  </UnstructuredGrid>
</VTKFile>
